# vtk DataFile Version 2.0
Unstructured Grid by M++
ASCII
DATASET UNSTRUCTURED_GRID
POINTS 4072 float
  0.609375   0.843750 0
  0.562500   0.843750 0
  0.531250   0.843750 0
  0.875000   0.828125 0
  0.984375   0.828125 0
  0.953125   0.828125 0
  0.937500   0.828125 0
  0.843750   0.828125 0
  0.812500   0.828125 0
  0.781250   0.828125 0
  0.765625   0.828125 0
  0.734375   0.828125 0
  0.703125   0.828125 0
  0.671875   0.828125 0
  0.640625   0.828125 0
  0.609375   0.828125 0
  0.593750   0.828125 0
  0.562500   0.828125 0
  0.546875   0.828125 0
  0.531250   0.828125 0
  0.515625   0.828125 0
  0.968750   0.812500 0
  0.937500   0.812500 0
  0.921875   0.812500 0
  0.890625   0.812500 0
  0.859375   0.812500 0
  0.828125   0.812500 0
  0.796875   0.812500 0
  0.765625   0.812500 0
  0.750000   0.812500 0
  0.718750   0.812500 0
  0.687500   0.812500 0
  0.656250   0.812500 0
  0.625000   0.812500 0
  0.593750   0.812500 0
  0.578125   0.812500 0
  0.546875   0.812500 0
  0.531250   0.812500 0
  0.515625   0.812500 0
  0.984375   0.796875 0
  0.562500   0.015625 0
  0.953125   0.796875 0
  0.921875   0.796875 0
  0.906250   0.796875 0
  0.875000   0.796875 0
  0.843750   0.796875 0
  0.812500   0.796875 0
  0.781250   0.796875 0
  0.750000   0.796875 0
  0.734375   0.796875 0
  0.703125   0.796875 0
  0.671875   0.796875 0
  0.640625   0.796875 0
  0.609375   0.796875 0
  0.578125   0.796875 0
  0.562500   0.796875 0
  0.531250   0.796875 0
  0.515625   0.796875 0
  0.968750   0.781250 0
  0.546875   0.000000 0
  0.937500   0.781250 0
  0.906250   0.781250 0
  0.890625   0.781250 0
  0.859375   0.781250 0
  0.828125   0.781250 0
  0.796875   0.781250 0
  0.765625   0.781250 0
  0.734375   0.781250 0
  0.718750   0.781250 0
  0.687500   0.781250 0
  0.656250   0.781250 0
  0.625000   0.781250 0
  0.593750   0.781250 0
  0.562500   0.781250 0
  0.546875   0.781250 0
  0.515625   0.781250 0
  0.984375   0.765625 0
  0.953125   0.765625 0
  0.921875   0.765625 0
  0.890625   0.765625 0
  0.875000   0.765625 0
  0.843750   0.765625 0
  0.812500   0.765625 0
  0.781250   0.765625 0
  0.750000   0.765625 0
  0.718750   0.765625 0
  0.703125   0.765625 0
  0.671875   0.765625 0
  0.640625   0.765625 0
  0.609375   0.765625 0
  0.578125   0.765625 0
  0.593750   0.750000 0
  0.562500   0.765625 0
  0.546875   0.765625 0
  0.531250   0.765625 0
  0.562500   0.750000 0
  0.968750   0.750000 0
  0.937500   0.750000 0
  0.906250   0.750000 0
  0.875000   0.750000 0
  0.859375   0.750000 0
  0.828125   0.750000 0
  0.796875   0.750000 0
  0.765625   0.750000 0
  0.734375   0.750000 0
  0.703125   0.750000 0
  0.687500   0.750000 0
  0.671875   0.750000 0
  0.656250   0.750000 0
  0.625000   0.750000 0
  0.546875   0.750000 0
  0.531250   0.750000 0
  0.515625   0.750000 0
  0.562500   0.734375 0
  0.984375   0.734375 0
  0.953125   0.734375 0
  0.921875   0.734375 0
  0.890625   0.734375 0
  0.859375   0.734375 0
  0.843750   0.734375 0
  0.812500   0.734375 0
  0.781250   0.734375 0
  0.750000   0.734375 0
  0.718750   0.734375 0
  0.687500   0.734375 0
  0.671875   0.734375 0
  0.656250   0.734375 0
  0.640625   0.734375 0
  0.546875   0.734375 0
  0.531250   0.734375 0
  0.515625   0.734375 0
  0.562500   0.718750 0
  0.968750   0.718750 0
  0.937500   0.718750 0
  0.906250   0.718750 0
  0.875000   0.718750 0
  0.843750   0.718750 0
  0.796875   0.718750 0
  0.765625   0.718750 0
  0.734375   0.718750 0
  0.703125   0.718750 0
  0.687500   0.718750 0
  0.671875   0.718750 0
  0.656250   0.718750 0
  0.625000   0.718750 0
  0.546875   0.718750 0
  0.531250   0.718750 0
  0.515625   0.718750 0
  0.562500   0.703125 0
  0.953125   0.703125 0
  0.921875   0.703125 0
  0.890625   0.703125 0
  0.859375   0.703125 0
  0.828125   0.703125 0
  0.781250   0.703125 0
  0.750000   0.703125 0
  0.718750   0.703125 0
  0.687500   0.703125 0
  0.656250   0.703125 0
  0.546875   0.703125 0
  0.531250   0.703125 0
  0.515625   0.703125 0
  0.984375   0.687500 0
  0.937500   0.687500 0
  0.921875   0.687500 0
  0.906250   0.687500 0
  0.875000   0.687500 0
  0.843750   0.687500 0
  0.812500   0.687500 0
  0.765625   0.687500 0
  0.734375   0.687500 0
  0.703125   0.687500 0
  0.671875   0.687500 0
  0.640625   0.687500 0
  0.593750   0.687500 0
  0.562500   0.687500 0
  0.546875   0.687500 0
  0.531250   0.687500 0
  0.515625   0.687500 0
  0.968750   0.671875 0
  0.937500   0.671875 0
  0.921875   0.671875 0
  0.906250   0.671875 0
  0.890625   0.671875 0
  0.859375   0.671875 0
  0.828125   0.671875 0
  0.796875   0.671875 0
  0.765625   0.671875 0
  0.750000   0.671875 0
  0.718750   0.671875 0
  0.687500   0.671875 0
  0.656250   0.671875 0
  0.625000   0.671875 0
  0.593750   0.671875 0
  0.578125   0.671875 0
  0.546875   0.671875 0
  0.531250   0.671875 0
  0.515625   0.671875 0
  0.984375   0.656250 0
  0.953125   0.656250 0
  0.937500   0.656250 0
  0.921875   0.656250 0
  0.906250   0.656250 0
  0.875000   0.656250 0
  0.843750   0.656250 0
  0.812500   0.656250 0
  0.781250   0.656250 0
  0.750000   0.656250 0
  0.734375   0.656250 0
  0.703125   0.656250 0
  0.671875   0.656250 0
  0.640625   0.656250 0
  0.609375   0.656250 0
  0.578125   0.656250 0
  0.562500   0.656250 0
  0.531250   0.656250 0
  0.515625   0.656250 0
  0.968750   0.640625 0
  0.937500   0.640625 0
  0.906250   0.640625 0
  0.890625   0.640625 0
  0.859375   0.640625 0
  0.828125   0.640625 0
  0.796875   0.640625 0
  0.765625   0.640625 0
  0.734375   0.640625 0
  0.718750   0.640625 0
  0.687500   0.640625 0
  0.656250   0.640625 0
  0.625000   0.640625 0
  0.593750   0.640625 0
  0.562500   0.640625 0
  0.546875   0.640625 0
  0.515625   0.640625 0
  0.984375   0.625000 0
  0.953125   0.625000 0
  0.921875   0.625000 0
  0.890625   0.625000 0
  0.875000   0.625000 0
  0.843750   0.625000 0
  0.812500   0.625000 0
  0.781250   0.625000 0
  0.750000   0.625000 0
  0.734375   0.625000 0
  0.718750   0.625000 0
  0.703125   0.625000 0
  0.671875   0.625000 0
  0.640625   0.625000 0
  0.609375   0.625000 0
  0.578125   0.625000 0
  0.562500   0.625000 0
  0.546875   0.625000 0
  0.531250   0.625000 0
  0.968750   0.609375 0
  0.937500   0.609375 0
  0.906250   0.609375 0
  0.875000   0.609375 0
  0.859375   0.609375 0
  0.828125   0.609375 0
  0.796875   0.609375 0
  0.765625   0.609375 0
  0.750000   0.609375 0
  0.734375   0.609375 0
  0.718750   0.609375 0
  0.703125   0.609375 0
  0.687500   0.609375 0
  0.656250   0.609375 0
  0.625000   0.609375 0
  0.593750   0.609375 0
  0.562500   0.609375 0
  0.546875   0.609375 0
  0.531250   0.609375 0
  0.515625   0.609375 0
  0.984375   0.593750 0
  0.953125   0.593750 0
  0.921875   0.593750 0
  0.890625   0.593750 0
  0.859375   0.593750 0
  0.843750   0.593750 0
  0.812500   0.593750 0
  0.781250   0.593750 0
  0.750000   0.593750 0
  0.734375   0.593750 0
  0.718750   0.593750 0
  0.687500   0.593750 0
  0.671875   0.593750 0
  0.640625   0.593750 0
  0.609375   0.593750 0
  0.578125   0.593750 0
  0.562500   0.593750 0
  0.546875   0.593750 0
  0.531250   0.593750 0
  0.515625   0.593750 0
  0.968750   0.578125 0
  0.937500   0.578125 0
  0.906250   0.578125 0
  0.875000   0.578125 0
  0.890625   0.562500 0
  0.843750   0.578125 0
  0.828125   0.578125 0
  0.796875   0.578125 0
  0.765625   0.578125 0
  0.734375   0.578125 0
  0.703125   0.578125 0
  0.671875   0.578125 0
  0.656250   0.578125 0
  0.656250   0.562500 0
  0.625000   0.578125 0
  0.640625   0.562500 0
  0.593750   0.578125 0
  0.562500   0.578125 0
  0.546875   0.578125 0
  0.531250   0.578125 0
  0.515625   0.578125 0
  0.859375   0.562500 0
  0.828125   0.562500 0
  0.781250   0.562500 0
  0.750000   0.562500 0
  0.718750   0.562500 0
  0.687500   0.562500 0
  0.609375   0.562500 0
  0.578125   0.562500 0
  0.562500   0.562500 0
  0.546875   0.562500 0
  0.531250   0.562500 0
  0.515625   0.562500 0
  1.000000   0.812500 0
  0.578125   0.031250 0
  0.875000   0.546875 0
  0.625000   0.546875 0
  0.218750   0.000000 0
  0.640625   0.781250 0
  0.828125   0.093750 0
  0.031250   0.531250 0
  0.296875   0.328125 0
  0.296875   0.312500 0
  0.281250   0.312500 0
  0.765625   0.312500 0
  0.031250   0.859375 0
  0.093750   0.265625 0
  0.109375   0.250000 0
  0.187500   0.671875 0
  0.421875   0.640625 0
  0.031250   0.062500 0
  0.140625   0.125000 0
  0.562500   0.906250 0
  0.125000   0.437500 0
  0.203125   0.937500 0
  0.125000   0.421875 0
  0.140625   0.406250 0
  0.093750   0.437500 0
  0.109375   0.421875 0
  0.093750   0.421875 0
  0.109375   0.406250 0
  0.328125   0.125000 0
  0.750000   0.906250 0
  0.328125   0.109375 0
  0.750000   0.890625 0
  0.312500   0.125000 0
  0.734375   0.906250 0
  0.281250   0.343750 0
  0.265625   0.359375 0
  0.500000   0.796875 0
  0.078125   0.015625 0
  0.062500   0.015625 0
  0.484375   0.796875 0
  0.484375   0.781250 0
  0.062500   0.000000 0
  0.015625   0.250000 0
  0.062500   0.046875 0
  0.484375   0.828125 0
  0.484375   0.812500 0
  0.062500   0.031250 0
  0.281250   0.671875 0
  0.062500   0.234375 0
  0.328125   0.765625 0
  0.312500   0.750000 0
  0.015625   0.671875 0
  0.781250   0.187500 0
  0.015625   0.265625 0
  0.453125   0.250000 0
  0.453125   0.234375 0
  0.031250   0.265625 0
  0.046875   0.250000 0
  0.093750   0.015625 0
  0.265625   0.656250 0
  0.734375   0.281250 0
  0.156250   0.015625 0
  0.062500   0.265625 0
  0.046875   0.281250 0
  0.031250   0.281250 0
  0.343750   0.781250 0
  0.328125   0.781250 0
  0.265625   0.687500 0
  0.265625   0.703125 0
  0.156250   0.109375 0
  0.578125   0.890625 0
  0.484375   0.984375 0
  0.062500   0.203125 0
  0.328125   0.718750 0
  0.343750   0.734375 0
  0.343750   0.750000 0
  0.453125   0.500000 0
  0.437500   0.500000 0
  0.234375   0.093750 0
  0.171875   0.375000 0
  0.437500   0.531250 0
  0.468750   0.546875 0
  0.453125   0.546875 0
  0.187500   0.015625 0
  0.187500   0.000000 0
  0.609375   0.781250 0
[...]
CELL_DATA 7648
SCALARS scalar_value float 1
LOOKUP_TABLE default
0.204857
0.195937
0.186388
0.198927
7.21081e-07
4.95142e-07
5.15454e-07
3.56647e-07
0.190818
0.182167
0.18087
8.29742e-07
4.28284e-07
6.86762e-07
0.227406
0.221661
0.221209
0.213155
0.0134553
0.012906
0.0146269
0.0114106
0.00011214
0.00163226
0.0017389
0.00241247
0.00140125
0.0727329
0.0652867
1.7841e-05
2.03857e-05
2.86008e-05
1.29958e-05
4.4508e-05
4.97698e-05
6.74713e-05
3.28705e-05
9.90454e-06
1.16781e-05
1.60455e-05
0.00010801
0.000224384
0.0197227
0.0155618
0.012839
0.00284247
0.00231296
0.00225954
0.00038172
0.00416227
0.000179102
0.00125614
0.000736028
0.000727564
0.000275992
0.00216937
0.000190896
0.000192506
0.000624378
0.000878399
0.00123308
0.00479519
0.000495532
5.96714e-05
7.30311e-05
3.24768e-08
3.78036e-08
0.000717584
0.0143063
1.26774e-06
0.104733
0
0.0310704
0.0337218
0.000268874
2.17938e-08
0.118684
3.88304e-08
0.000128768
0.0360586
0.0348686
5.79298e-10
1.23648e-06
2.50598e-08
0.000550484
3.67165e-05
0.083418
0.0786137
1.07597e-05
0
2.9725e-05
1.22278e-08
0.0157326
0.0186161
8.03735e-09
0.000941035
0.00211416
0.00169794
0.0028882
0.0021723
0.0333141
0.00063433
0.0318025
0.0326438
0.00147434
0.00789048
0.141032
0.000571702
0.000318572
4.57594e-05
0.000879046
0.000445059
0.000343921
1.70799e-08
0.0224883
1.45831e-08
0.025782
0.0190161
0.000380523
4.91417e-07
3.38015e-07
1.12251e-10
7.13442e-09
0.0040374
2.81678e-09
5.65541e-09
3.01378e-09
0.0440628
0.0334897
0.0474713
2.34267e-08
0.00713384
8.55475e-09
5.80668e-06
0.148651
2.66628e-06
0.146111
0.000934708
7.54894e-05
0.00205646
0.000181445
0.00171431
0.00170612
3.2928e-05
0.0014764
0.00331372
1.66364e-07
0.000950846
9.92234e-05
2.76434e-05
2.0896e-05
0.00280467
0.00350238
0.00435622
1.67272e-09
2.88474e-09
7.88317e-06
4.9509e-05
0.0045203
0.00095075
0
0.015011
0.0169629
0.0367626
0.00549887
0.00377125
2.78443e-05
0.00478448
0.00351554
6.35983e-07
1.0805e-08
0.0150345
0.000968488
9.31306e-09
0.000378922
0.000510761
2.84657e-06
0.00942858
0.0318353
0.00962473
0.00682035
0.0305979
0.00041181
0.0911788
2.97602e-09
0.00404528
0.000292592
1.24878e-09
2.48146e-09
0.0439377
2.06057e-09
0.0283021
0.000116403
5.58722e-07
0.000174974
9.16137e-05
0.000100175
7.13112e-05
3.76441e-08
5.03785e-08
4.65569e-08
0.000111409
0.00878625
0.000176086
0.000182764
0.0033701
0.00166576
1.95009e-06
1.07043e-06
1.57949e-06
0.000355536
0.00053024
0.000750624
0.000484211
0.0247612
0.0253716
0
5.27876e-07
4.75134e-10
0.00475039
0.0049095
0.0214486
0.0160555
6.93267e-05
0.0227982
1.20966e-05
0.00363821
0.00340475
0.0263261
0.0292767
2.28487e-05
3.64417e-05
0.0295096
0.0389041
3.81744e-05
2.70952e-05
2.25768e-05
2.21922e-05
0.0176856
2.28474e-09
0.0171112
1.38957e-09
0.0967547
1.69141e-05
1.31366e-05
0.0301043
0.126408
0.0355111
0.0279711
1.09792e-05
0.0384379
0.000133788
0.00143487
0.00171206
0.00144127
0.126282
0.0378892
2.03583e-05
1.19416e-05
0.010582
0.012192
0.0115231
0.00293323
0.000395254
9.08402e-05
0.0359658
4.45759e-05
0.00944023
2.47188e-05
0.0558934
0.00214222
0.00511907
1.16537e-10
4.68657e-07
1.00652e-08
4.98056e-05
1.86592e-06
8.40872e-05
0.0744085
0.0864571
9.1939e-05
0.196817
0.000119345
3.45185e-09
0.110535
0.0001241
2.4489e-09
5.54436e-05
9.92976e-07
0.00297629
2.04683e-06
8.05934e-07
0.000598876
2.08394e-07
0.0528593
0.0510809
2.22553e-07
0.057196
3.94344e-09
0.000154872
0.00163154
0.142574
1.82413e-08
3.83389e-05
0.00788983
0.00659063
0.00588237
0.0174452
0.000182128
0.0485164
0.04338
0.00372161
1.30314e-06
4.91947e-07
4.0727e-06
0.0302908
0.025087
5.47295e-06
0.0218785
0.0313352
0.0185702
0.00565793
0.205654
0.0147577
0.00863879
0.00868099
0.00251214
0.0125183
0.0106103
0.00489033
0.00425455
0.00265082
0.00389151
0.222182
5.01011e-08
0.230264
3.64113e-08
6.56566e-06
5.85441e-06
0.000908708
0.0181691
7.72246e-06
5.32357e-06
6.7533e-10
3.43391e-07
0.245848
0.246995
7.63736e-09
6.62339e-07
3.31238e-08
5.47512e-08
4.59495e-08
0.0146507
0.000682713
1.38603e-05
0.00138003
4.58577e-05
2.43966e-07
2.3515e-07
1.71209e-07
0.0157333
0.0157543
0.0196335
0.177667
0.00882469
1.22593e-05
0.00309295
2.22659e-07
3.70404e-06
3.23092e-06
0.0125079
0.167519
2.35022e-05
0.0647209
1.28745e-05
0.0394872
2.119e-08
3.05836e-06
0.000252992
0.00663892
0.0454469
0.000910798
0.00290465
0.000484894
0.0213194
0.0573584
0.0191351
0.13737
0.000152378
2.51425e-05
1.25634e-05
0.193028
3.87706e-05
1.71263e-05
0.000131141
4.17374e-05
0.000356203
4.79306e-06
1.00844e-06
0.214018
1.10508e-05
0.000332477
0.00618534
0.000315976
0.0043185
0.192452
6.62224e-05
0.10565
0.000107419
2.60716e-05
1.47025e-08
0.000202887
0.000218939
1.0622e-07
0.118984
0.000159618
4.01278e-08
0.000124339
2.45576e-05
0.135232
0.124501
0.166123
2.60917e-07
0.00324245
0.0122589
0.0109694
1.20079e-07
0.0111971
0.00033685
0.000838808
0.00994036
0.00150262
0.000654852
9.48113e-06
0.000708768
0.000443138
0.000178807
1.42783e-09
4.89564e-05
0.0257076
0.00778492
0.0320179
0.00559366
0.00908669
0.000852844
0.0119538
0.000704579
0.000613138
0.0190262
0.0144788
3.25362e-05
0.00153509
0.000658668
0.00200063
0.0168581
0.000933372
0.00117792
0.000988035
0.000624686
8.57801e-06
8.05865e-05
0.00316055
0.0327132
0.0230074
1.22653e-10
0.000511327
0.000415161
5.15331e-06
5.95984e-10
1.93491e-05
0.0277187
1.65936e-06
0.0840253
1.8774e-08
1.98559e-06
0.0793714
0.000500519
0.0270929
5.66218e-10
0.0305481
3.90492e-09
0.0597577
1.44922e-08
6.18654e-09
0.068288
0.0622596
0.0516967
0.00696287
0.00187096
0.00228591
6.6022e-07
0.0324936
9.19144e-07
0.0722391
0.000319499
1.89827e-07
0.000613138
3.43897e-07
0.0293784
0.000345717
0.000260299
0.000307605
0.0560651
2.10702e-05
1.49926e-05
0.00133684
0.000822453
0.000650796
0.000557675
0.000528823
1.87426e-06
0.00167692
0.00109626
7.2327e-06
0.00123749
0.000181385
0.0470999
0.000725201
0.000155816
0.0401906
0.000584918
0.00197034
8.92861e-05
0.000147069
2.40351e-05
0.0235437
2.17663e-06
0.00335005
0.0208998
0.0162568
0.00374927
0.000176039
5.81663e-08
0.000243652
0.00143306
0.000183955
0.001178
0.00029849
0.00091438
0.00148765
0.00122584
0.000785221
6.74156e-05
5.74245e-05
3.74044e-05
0.117468
5.50567e-08
0.0238233
1.74108e-05
0.019675
0.019122
4.29747e-06
0.0501693
0.0456749
0.0810612
0.0643204
0.0844461
0.00649889
0.000290156
0.000110937
0.00664947
0.000178844
6.35091e-05
0.000279996
0.0253161
0.010732
0.00118297
0.0259003
0.0276746
0.0236438
0.00397832
1.47341e-05
0.0203602
0.00460745
0.000264247
0.127732
0.00117228
0.000138217
1.16787e-07
0.0135864
0.0706475
0.073576
7.89867e-05
0.000119846
1.15915e-05
5.19995e-05
0.244584
0.0101952
4.87494e-05
0.00407057
0.00274461
2.96234e-08
3.84228e-05
0.000466534
1.48843e-05
0.00114413
0.184404
0.0740546
0.000287602
0.044981
0.000381425
0.000257941
1.56454e-05
0.000180841
0.0695696
4.65573e-09
0.000211931
1.3842e-08
0.160203
6.34854e-07
4.70064e-07
3.2751e-07
0.00108755
0.00118304
0.00131371
0.0115826
2.20237e-05
0.0098249
0.000348675
3.87021e-06
0.00155309
7.01338e-06
6.73424e-06
0.00027165
1.82994e-09
0.000343158
0.000212041
5.05209e-06
7.61912e-06
0.000226273
0.000336275
2.17407e-05
3.1547e-06
2.89948e-06
8.81851e-06
0.0642962
5.13e-06
0.0336864
0.194952
0.187058
1.56203e-06
2.38291e-06
0.124806
0.000118889
0.000596426
0.0250085
1.86507e-06
1.4161e-05
2.19075e-05
3.15551e-08
0.00171913
0.0181378
0.0201673
2.00193e-05
8.66701e-08
0.111608
2.10864e-05
0.0948758
0.174023
0.0654688
0.0207009
0.150007
0.0585062
0.000204768
0.000200958
0.000231832
0.000255466
0.000293473
1.37646e-09
2.6211e-09
1.52531e-09
0.00216099
2.06976e-06
0.000727447
1.43126e-06
0.000200301
0.224019
0.216964
0.210639
0.000744013
0.000755234
0.000576204
0.143236
2.54663e-09
0.147923
0.0166348
0.00424153
0.0183402
2.03899e-05
4.74109e-10
0.0146431
0.0123606
8.0641e-05
0.0783497
0.0132093
0.00882641
0.109349
0.00776234
7.21997e-05
0.00289181
0.00371998
7.52015e-07
0.0736618
0.037777
0.0807197
0.0216954
0.0465756
0.0428702
0.000315852
0.000282571
9.83773e-05
6.88327e-05
5.4561e-05
0.0384949
0.0416259
0.000128509
0.000109353
0.00269208
0.0138917
0.000131419
7.77827e-05
0.0763951
0.0687983
0.0634064
0.000357548
0.00030562
0.0437059
0.000219831
0.0868891
0.0965189
0.0907995
0.000933441
0.000805891
0.00059133
0.00403496
0.00260772
0.214016
0.00198026
0.00229664
0.00148817
5.31767e-06
0.00195421
0.00121742
0.0012605
0.0014504
0.0853432
0.0785319
0.0776776
0.202709
0.000850295
0.00198813
0.00183488
0.00140028
0.000136648
0.000298446
0.000178411
0.000203948
0.000444057
0.00036693
4.1995e-07
8.21405e-06
0.00162952
1.32333e-05
2.60528e-05
0.000633193
3.37301e-05
4.28774e-09
0.00116003
0.00878115
0.052243
0.0463769
0.0455195
0.135121
0.126889
0.119562
0.00691
8.83793e-06
0.00807536
0.00624511
0.142472
0.134787
0.0447127
0.0636029
6.20774e-08
2.2225e-07
2.22079e-07
0.166787
0.161634
1.25407e-05
0.00789471
0.00614356
0.000101471
0.0249101
0.00582256
7.93549e-07
0.0388748
0.00441002
0.000146401
1.31772e-05
0.000132701
2.94349e-06
5.11505e-05
9.53395e-05
0.0110411
0.161756
2.60917e-05
0.0585033
0.135506
0.0217327
0.0119147
0.140295
2.56365e-07
0.0504536
0.000749032
0.0432379
0.0432784
0.0424048
0.0971542
0.0188804
0.0125656
1.13426e-05
2.21291e-05
5.29621e-07
8.53727e-05
4.42101e-05
4.83297e-07
0.000297663
0.0673666
5.99256e-08
0.00859183
1.13787e-07
0.00326602
0.0390963
0.035635
0.0395198
0.0927424
0.0876278
1.91911e-07
0.000489781
0.000582777
0.00189204
0.139533
0.124749
1.59063e-09
0.00207018
6.16957e-05
0.000301929
0.00099834
0.00430953
0.00697525
1.81932e-09
0.151362
0.0262969
0.0224135
0.175389
0.0225756
7.26057e-05
0.0624835
0.128599
0.106397
0.0169627
0.00108406
0.0136123
2.14053e-09
0.000306132
2.09731e-07
3.51113e-06
0.00354131
0.0272039
0.000682561
0.00209615
0.0215305
0.00155699
1.3437e-09
2.52491e-09
1.13016e-09
0.012321
0.000944079
1.21382e-08
0.0393576
7.39581e-10
0.0463787
0.00107542
0.000877021
2.79057e-10
0.00325806
0.0193955
0.0170539
0.00625524
6.2974e-10
2.79176e-10
0.2241
0.20977
0.223445
8.7872e-05
0.0491012
3.87016e-08
1.30516e-08
0.0694007
0.0606571
0.0798803
0.055374
6.75159e-05
1.72526e-05
2.0229e-08
0.00453058
2.64507e-05
0.00479387
0.0031186
0.112546
0.012223
0.00635808
0.110057
0.000459345
0.000334539
8.98078e-09
0.00242715
0.00273974
0.00299404
0.0031366
0.00619119
1.04215e-06
0.000359086
0.00389452
0.0018493
0.00111819
0.00161145
0.00552026
0.0011858
0.00118095
9.9907e-06
7.21102e-07
0.0215984
0.0221174
0.0193464
0.0337509
0.0270238
0.036737
0.0166245
0.00936716
0.0383039
0.0167272
0.000377818
0.0264144
0.00256562
0.024185
4.49409e-05
9.41628e-09
0.000767788
9.04591e-06
0.000787164
0.00241622
0.00437
0.00269496
0.0243445
0.0652914
0.0869889
9.63747e-07
4.67226e-07
0.000779076
3.35677e-05
2.68739e-05
0
3.09778e-07
4.42494e-06
4.22065e-09
4.22561e-08
0.140225
0.00624309
2.17231e-09
2.90712e-10
0.000342948
0.000400065
0
0.051704
0.000451077
4.52336e-06
2.53751e-08
5.90422e-06
2.79845e-06
0.00790169
5.50518e-06
6.22508e-09
0.0101584
0.000836098
0.000230205
0.00521233
0.00121375
0.00121138
0.00106009
0.000108831
0.0238419
7.86178e-09
0.149679
0.00639404
0.0198899
0.0139451
0.00719518
1.11924e-05
0.0420061
3.47737e-09
0.0105547
0.00990635
0.00159311
1.26468e-05
0.0130008
7.43511e-06
0.00882654
0.0441507
7.28491e-05
7.01949e-06
2.7586e-08
0.000269549
0.015703
0.0400805
0.13329
4.50245e-08
0.0123556
0.139167
0.10161
0.127229
0.00883061
0.000303105
0.00433104
0.0335287
0.0198144
0.156375
3.89268e-05
1.53803e-06
8.48855e-08
2.94189e-06
3.6288e-07
1.99542e-06
0.000113708
7.77219e-07
0.191627
0.0738534
0.0407351
2.53184e-07
0.00274837
0.00310562
0.0825897
0.0118311
8.98497e-06
1.06205e-06
6.75056e-05
0.0608367
0
1.05651e-08
7.35158e-09
0.00653755
7.1158e-07
0.0707079
5.24459e-07
0.000189574
6.42013e-05
0.0052987
0.00713102
0.00502065
5.12897e-09
0.012411
1.37403e-07
7.21068e-06
0.000917037
0.00372997
2.84251e-05
0.00532358
0.0301329
0.178645
0.0103364
1.75116e-07
0.0051538
0.00368244
0.000680391
0.000597996
0.00415092
0.000324444
1.23798e-07
3.01512e-06
0
0.000620711
2.47498e-07
0
0.0544513
0.00048954
0.00121681
3.53442e-07
2.93214e-09
1.75257e-07
0
0.00165641
0.142458
0.000405085
6.70665e-09
0.00249393
3.9556e-06
1.24294e-07
0.100655
0.00324868
0.00222116
0
0.000107432
0.000610344
0.181926
0.0035922
0.0112201
9.71196e-06
0.00213472
0.014446
0.000176884
0.00372499
0.0058758
0.00446614
0.0067938
2.37421e-05
0.208982
0.00223648
2.0376e-09
0.0430318
8.74929e-08
0.00260552
0.000529065
2.7019e-09
0.00768179
1.714e-09
0.233771
0.0459649
0.00470093
4.55794e-06
0.157087
2.38938e-05
0.207568
0.000536663
0.000228732
0.00221648
4.36965e-05
0.00932159
5.23448e-06
0.142919
2.56599e-05
1.20958e-06
0.171001
0.166576
0.0134719
0.00498816
0.00251598
0.00587114
6.93e-05
0.0575015
2.4934e-05
5.79592e-06
6.34744e-07
1.53238e-05
0.000284114
1.46994e-06
1.00777e-06
2.69897e-06
0.000624493
0.0017517
0.0421937
0.0449249
0.00372336
8.72061e-05
0.000114228
0.00203626
1.38454e-05
0.00523722
0.000582732
0.000749582
0.0596572
0.0453734
0.00444462
0.0900759
0.197122
0.00178465
0.0527071
0.122596
0.00449139
1.00712e-05
0.195993
0.0414993
0.00104204
0.041397
4.03018e-09
0.167517
0.00098474
9.03077e-08
0.0461278
5.63488e-05
8.84368e-06
1.6644e-06
1.97361e-08
0.0067642
0.000874979
0.000666383
0.00053755
0.0139954
0.0311921
0.0383444
1.56711e-10
0.00138057
0.0371487
0.0781404
0.00211432
0.0216813
2.32256e-08
0.033865
1.2542e-06
5.95285e-09
0.0441041
0
1.84455e-05
0.0819854
0.000159024
0.0657515
1.73229e-10
0.0839447
4.18783e-07
5.52692e-09
0.108886
9.29622e-08
2.65924e-09
0.00524787
0.00689773
0.120742
9.43464e-06
3.8987e-07
0.000117444
0.000774762
0.00242858
0.00347928
1.15928e-07
0.000100321
0.00934888
0.0136795
4.02915e-05
0.00297234
0.133398
0.00591567
0.00517608
0.00016155
6.28352e-05
0.0150554
3.09978e-07
0.135796
0.0117539
0.000266462
1.20228e-06
0.0358255
0.00035226
0.0383907
0.065755
0.0869796
0.000264748
0.00325958
0.000345065
0.0526845
0.0729141
2.7921e-05
0.00101336
0.0177242
1.29547e-06
0.000758499
0.00257318
2.082e-08
0.0308255
1.54146e-10
9.70072e-07
0.0352795
0
0.000747156
2.28883e-07
0.0235088
0.161309
3.94601e-06
0.000975612
0.000427317
0.0245947
3.74037e-05
1.41667e-05
0.00693616
6.08799e-05
2.96515e-07
5.12752e-07
0.00471347
0.0292328
0.206677
2.58071e-09
2.53672e-08
0.126786
5.87037e-08
3.36305e-10
0.0303732
1.13386e-06
0.000252425
3.6726e-06
1.53762e-06
0.17801
0.149435
5.42364e-08
4.84085e-09
0.158861
3.0375e-10
5.19786e-10
6.29111e-08
2.18933e-09
0.000146682
4.77251e-08
4.78308e-10
0.0019764
0.0563072
0.0632673
0.00417551
8.32727e-08
1.97868e-09
0.0960592
0.0942681
0.0476404
0.0331381
0.0260738
0.052535
3.41041e-07
3.42747e-05
0.00103903
0.000145108
2.13682e-06
1.11216e-06
9.94835e-06
0.00134456
0.0511065
0.021425
0.0298578
7.46291e-07
0.000163089
1.33007e-06
2.31676e-05
2.1409e-07
0.0283331
0.000433715
3.82375e-08
0.00521765
0.00252962
0.00919267
0.0303422
2.42381e-06
0.00129578
0.00615564
0
0.00459112
3.14708e-07
0.0010913
1.19079e-09
0.00194975
0.00184507
0.00387149
8.87682e-05
0.00117668
0.00137518
1.2151e-10
0.0803998
0.0633683
2.54916e-07
0.246801
2.47539e-08
0.000222212
0.0383704
0.00959928
0.0207137
0.000467604
0.000385365
0.0494013
0.000870565
0.0385278
0.00490161
1.08013e-10
0
0.000688389
0.125337
0.0485535
0.0428508
0.155363
0.00275295
0.00855656
6.8288e-09
2.63358e-05
0.000106201
0.0215498
0
0.00151057
0.0160884
2.09396e-06
0.000659616
0.0564992
0.00087199
0.000234047
2.44999e-06
5.46198e-10
0.0198937
0.0161848
0.000287196
0.0961447
2.90946e-08
3.36931e-05
0.000138231
0.000308748
9.29316e-09
0.00308779
0.0117881
0.000434957
0.0323711
1.23757e-05
1.65866e-07
3.99442e-08
0.00299644
1.17355e-06
0.00164212
0.0022548
0.00229948
0.00042518
0.0451745
1.14296e-08
3.77568e-06
0.000537908
0
0.000232842
0.00135395
0.00135332
0.000514651
2.57816e-06
0.000305953
0.132477
0.0650308
0.000554021
3.77866e-08
0.000132222
5.48723e-05
0.0171055
0.000216536
2.35321e-06
0.000417182
0.0850021
0.0978291
2.58258e-07
0.0967945
0.0794126
8.262e-10
6.31075e-05
0.0055202
0.0070389
1.62248e-09
0.00146626
0.0569851
0.000864981
0.000358817
2.67318e-07
4.49566e-05
4.07033e-06
0.000537892
0.046001
0.000332821
0.000284542
0.0135772
0.000198286
1.81117e-06
0.0802344
0.0518621
0.0510401
0.0991913
0.00017834
1.29915e-05
0.191249
0.215965
0.00299003
6.85688e-07
6.72059e-08
0.00168406
6.66012e-05
0.0298162
7.87861e-05
1.62426e-06
0.00938146
8.13599e-07
0.000884879
0.0299731
7.45061e-09
0.0168062
0.0064872
0.163178
0.152903
0.00855218
0.21625
3.35452e-09
0.000143061
2.36142e-06
0.000229129
0.0651101
4.655e-08
0.111307
0.00568766
0.0034553
9.37918e-07
4.47021e-06
0.00510191
0.00108742
0.137276
6.67622e-08
1.21105e-08
9.84168e-07
0.00984223
6.20184e-10
3.4104e-06
0.0376961
0.00160396
0.0185831
0.0210769
0.000829456
0.000504782
3.74704e-07
0.000417777
0.0304381
4.77156e-05
0.00254404
5.69805e-07
0.0999467
5.17199e-05
0.0269803
0.0126142
0.0754796
0.0704362
0.000718537
0.000354479
0.000326373
6.94846e-05
0.161468
0.000185024
0.0319018
4.74198e-08
6.84792e-06
0.136403
9.96701e-08
2.58667e-07
1.11068e-07
0.00076292
0.0273476
0.0291069
0.000143335
0.0176324
0.0471124
0.000308337
0.0351132
0.0389613
0.000764359
1.0831e-06
0.00174485
0.0512711
0.0360268
0.000140798
9.64605e-10
9.26962e-07
5.41558e-05
7.28312e-05
0.0294218
3.30027e-06
5.96922e-05
8.41241e-06
0.00247977
0.00344822
9.94176e-05
8.11027e-08
0.0519313
0.000225808
1.32233e-09
0
0.00511813
0.0595456
0.00020307
3.68439e-08
0.000275478
0.000249182
0.000360842
3.55615e-05
0.000509326
0.0465353
0.0162573
6.03469e-05
0.00665177
1.00625e-06
0.000586885
0.00218953
0
0.00117827
0
4.65011e-09
0.105058
0.00344106
0.0130748
7.80217e-10
1.38208e-05
0.00273097
0.00820999
0.00955991
4.622e-06
0.000125637
0.000169171
0.0516913
0.0619599
1.92716e-07
0.0216003
0.0250955
1.12904e-05
0.00386482
7.66392e-05
3.22642e-05
0.00448158
2.66251e-06
0.0354351
2.22115e-05
0.000185635
0.000758223
3.88136e-05
3.71618e-05
5.83721e-06
0.000822105
1.96656e-06
5.51101e-05
0.0354226
0.0529693
7.15736e-07
0.000205296
0.0569709
0.219606
4.639e-05
0.00189108
0.0118839
0.000389253
0.200035
0.0374541
0.000383803
0.196685
0.040684
0.208863
0.0213347
0.000160279
1.75342e-05
0.0027899
0.00961615
0.0613852
0.0513131
0.0134567
0.00012872
5.72376e-07
0.0030192
0.127701
0.0755537
2.13415e-05
8.19717e-05
0.000405295
3.27913e-07
1.75009e-05
0.04792
0.024373
8.6103e-10
0.0577847
0.00159163
0.000105243
0.00658869
0.000995487
0.000289809
3.47308e-06
6.47965e-06
0.00612623
0.0117733
0.000115298
0.00455435
0.0101652
0.00919797
0.00300882
0.0075283
0.000108848
0.000193254
6.31907e-10
0.0039558
0.00304744
4.24193e-06
9.12614e-07
0.00985943
0.000457816
2.86375e-06
6.05128e-07
0.00295701
0.00610838
3.69856e-05
0.160296
0.0642109
1.30793e-08
0.236923
0.00642003
0.00408186
2.53418e-06
3.9077e-07
0.000118515
0.0112077
0.0390042
0.0322642
0.0134646
3.07419e-05
0.00872684
0.228328
1.29864e-06
1.063e-06
0.00484886
0.0044278
0.000103618
1.08717e-06
0.0213327
0.00278889
8.5881e-05
5.99065e-07
1.06971e-05
2.62068e-09
6.00036e-06
3.49687e-07
6.56456e-06
0.0073018
0.010803
0.0569242
0.16051
0.104186
0.0301831
4.14459e-06
2.23692e-06
0.0912945
2.02927e-06
1.54838e-06
9.49421e-08
0.0308988
6.53248e-07
0.0070867
0.000452866
0
0
0.0575767
0.000125168
0
0.00155896
0.00143622
0.000114957
0.0550105
0.00562966
0
0.0608445
0.0126774
0.0178894
1.0549e-05
0.00407077
0.00326347
0.000990134
1.60903e-10
1.43461e-10
0.0496959
0.00467155
0.00168562
0.000466855
0.0107974
3.74329e-10
9.4612e-08
1.68531e-09
0.0301678
6.47221e-08
0.00153598
0.0360813
0.224262
1.89064e-09
6.34314e-10
0.00114067
7.16123e-07
0.000602871
0.0004862
0.000987545
6.14442e-06
0.209611
0.0021579
0.205312
0.00226694
0.20409
7.03418e-06
0.000523415
0.00343661
0.218776
0.000121769
0.00118373
0.00463353
0.000459466
0.00161306
0.0050446
0.000729876
0.00109491
6.75548e-07
0.0185011
6.82086e-05
0.000407127
7.13841e-06
2.06116e-06
0.00164035
1.26039e-07
5.97812e-08
0.0786903
0.0815659
0.000189685
3.96882e-07
0.00193516
0.00864535
0.0814451
0.0760188
0.196879
5.51961e-09
1.11785e-08
1.44954e-06
3.73641e-08
0.00159323
1.71514e-07
0.00273869
6.98507e-05
6.03031e-05
0.00016351
0.00119863
7.44992e-05
0.000108564
9.96575e-05
0.000146709