# vtk DataFile Version 2.0
Unstructured Grid by M++
ASCII
DATASET UNSTRUCTURED_GRID
POINTS 4072 float
  0.609375   0.843750 0
  0.562500   0.843750 0
  0.531250   0.843750 0
  0.875000   0.828125 0
  0.984375   0.828125 0
  0.953125   0.828125 0
  0.937500   0.828125 0
  0.843750   0.828125 0
  0.812500   0.828125 0
  0.781250   0.828125 0
  0.765625   0.828125 0
  0.734375   0.828125 0
  0.703125   0.828125 0
  0.671875   0.828125 0
  0.640625   0.828125 0
  0.609375   0.828125 0
  0.593750   0.828125 0
  0.562500   0.828125 0
  0.546875   0.828125 0
  0.531250   0.828125 0
  0.515625   0.828125 0
  0.968750   0.812500 0
  0.937500   0.812500 0
  0.921875   0.812500 0
  0.890625   0.812500 0
  0.859375   0.812500 0
  0.828125   0.812500 0
  0.796875   0.812500 0
  0.765625   0.812500 0
  0.750000   0.812500 0
  0.718750   0.812500 0
  0.687500   0.812500 0
  0.656250   0.812500 0
  0.625000   0.812500 0
  0.593750   0.812500 0
  0.578125   0.812500 0
  0.546875   0.812500 0
  0.531250   0.812500 0
  0.515625   0.812500 0
  0.984375   0.796875 0
  0.562500   0.015625 0
  0.953125   0.796875 0
  0.921875   0.796875 0
  0.906250   0.796875 0
  0.875000   0.796875 0
  0.843750   0.796875 0
  0.812500   0.796875 0
  0.781250   0.796875 0
  0.750000   0.796875 0
  0.734375   0.796875 0
  0.703125   0.796875 0
  0.671875   0.796875 0
  0.640625   0.796875 0
  0.609375   0.796875 0
  0.578125   0.796875 0
  0.562500   0.796875 0
  0.531250   0.796875 0
  0.515625   0.796875 0
  0.968750   0.781250 0
  0.546875   0.000000 0
  0.937500   0.781250 0
  0.906250   0.781250 0
  0.890625   0.781250 0
  0.859375   0.781250 0
  0.828125   0.781250 0
  0.796875   0.781250 0
  0.765625   0.781250 0
  0.734375   0.781250 0
  0.718750   0.781250 0
  0.687500   0.781250 0
  0.656250   0.781250 0
  0.625000   0.781250 0
  0.593750   0.781250 0
  0.562500   0.781250 0
  0.546875   0.781250 0
  0.515625   0.781250 0
  0.984375   0.765625 0
  0.953125   0.765625 0
  0.921875   0.765625 0
  0.890625   0.765625 0
  0.875000   0.765625 0
  0.843750   0.765625 0
  0.812500   0.765625 0
  0.781250   0.765625 0
  0.750000   0.765625 0
  0.718750   0.765625 0
  0.703125   0.765625 0
  0.671875   0.765625 0
  0.640625   0.765625 0
  0.609375   0.765625 0
  0.578125   0.765625 0
  0.593750   0.750000 0
  0.562500   0.765625 0
  0.546875   0.765625 0
  0.531250   0.765625 0
  0.562500   0.750000 0
  0.968750   0.750000 0
  0.937500   0.750000 0
  0.906250   0.750000 0
  0.875000   0.750000 0
  0.859375   0.750000 0
  0.828125   0.750000 0
  0.796875   0.750000 0
  0.765625   0.750000 0
  0.734375   0.750000 0
  0.703125   0.750000 0
  0.687500   0.750000 0
  0.671875   0.750000 0
  0.656250   0.750000 0
  0.625000   0.750000 0
  0.546875   0.750000 0
  0.531250   0.750000 0
  0.515625   0.750000 0
  0.562500   0.734375 0
  0.984375   0.734375 0
  0.953125   0.734375 0
  0.921875   0.734375 0
  0.890625   0.734375 0
  0.859375   0.734375 0
  0.843750   0.734375 0
  0.812500   0.734375 0
  0.781250   0.734375 0
  0.750000   0.734375 0
  0.718750   0.734375 0
  0.687500   0.734375 0
  0.671875   0.734375 0
  0.656250   0.734375 0
  0.640625   0.734375 0
  0.546875   0.734375 0
  0.531250   0.734375 0
  0.515625   0.734375 0
  0.562500   0.718750 0
  0.968750   0.718750 0
  0.937500   0.718750 0
  0.906250   0.718750 0
  0.875000   0.718750 0
  0.843750   0.718750 0
  0.796875   0.718750 0
  0.765625   0.718750 0
  0.734375   0.718750 0
  0.703125   0.718750 0
  0.687500   0.718750 0
  0.671875   0.718750 0
  0.656250   0.718750 0
  0.625000   0.718750 0
  0.546875   0.718750 0
  0.531250   0.718750 0
  0.515625   0.718750 0
  0.562500   0.703125 0
  0.953125   0.703125 0
  0.921875   0.703125 0
  0.890625   0.703125 0
  0.859375   0.703125 0
  0.828125   0.703125 0
  0.781250   0.703125 0
  0.750000   0.703125 0
  0.718750   0.703125 0
  0.687500   0.703125 0
  0.656250   0.703125 0
  0.546875   0.703125 0
  0.531250   0.703125 0
  0.515625   0.703125 0
  0.984375   0.687500 0
  0.937500   0.687500 0
  0.921875   0.687500 0
  0.906250   0.687500 0
  0.875000   0.687500 0
  0.843750   0.687500 0
  0.812500   0.687500 0
  0.765625   0.687500 0
  0.734375   0.687500 0
  0.703125   0.687500 0
  0.671875   0.687500 0
  0.640625   0.687500 0
  0.593750   0.687500 0
  0.562500   0.687500 0
  0.546875   0.687500 0
  0.531250   0.687500 0
  0.515625   0.687500 0
  0.968750   0.671875 0
  0.937500   0.671875 0
  0.921875   0.671875 0
  0.906250   0.671875 0
  0.890625   0.671875 0
  0.859375   0.671875 0
  0.828125   0.671875 0
  0.796875   0.671875 0
  0.765625   0.671875 0
  0.750000   0.671875 0
  0.718750   0.671875 0
  0.687500   0.671875 0
  0.656250   0.671875 0
  0.625000   0.671875 0
  0.593750   0.671875 0
  0.578125   0.671875 0
  0.546875   0.671875 0
  0.531250   0.671875 0
  0.515625   0.671875 0
  0.984375   0.656250 0
  0.953125   0.656250 0
  0.937500   0.656250 0
  0.921875   0.656250 0
  0.906250   0.656250 0
  0.875000   0.656250 0
  0.843750   0.656250 0
  0.812500   0.656250 0
  0.781250   0.656250 0
  0.750000   0.656250 0
  0.734375   0.656250 0
  0.703125   0.656250 0
  0.671875   0.656250 0
  0.640625   0.656250 0
  0.609375   0.656250 0
  0.578125   0.656250 0
  0.562500   0.656250 0
  0.531250   0.656250 0
  0.515625   0.656250 0
  0.968750   0.640625 0
  0.937500   0.640625 0
  0.906250   0.640625 0
  0.890625   0.640625 0
  0.859375   0.640625 0
  0.828125   0.640625 0
  0.796875   0.640625 0
  0.765625   0.640625 0
  0.734375   0.640625 0
  0.718750   0.640625 0
  0.687500   0.640625 0
  0.656250   0.640625 0
  0.625000   0.640625 0
  0.593750   0.640625 0
  0.562500   0.640625 0
  0.546875   0.640625 0
  0.515625   0.640625 0
  0.984375   0.625000 0
  0.953125   0.625000 0
  0.921875   0.625000 0
  0.890625   0.625000 0
  0.875000   0.625000 0
  0.843750   0.625000 0
  0.812500   0.625000 0
  0.781250   0.625000 0
  0.750000   0.625000 0
  0.734375   0.625000 0
  0.718750   0.625000 0
  0.703125   0.625000 0
  0.671875   0.625000 0
  0.640625   0.625000 0
  0.609375   0.625000 0
  0.578125   0.625000 0
  0.562500   0.625000 0
  0.546875   0.625000 0
  0.531250   0.625000 0
  0.968750   0.609375 0
  0.937500   0.609375 0
  0.906250   0.609375 0
  0.875000   0.609375 0
  0.859375   0.609375 0
  0.828125   0.609375 0
  0.796875   0.609375 0
  0.765625   0.609375 0
  0.750000   0.609375 0
  0.734375   0.609375 0
  0.718750   0.609375 0
  0.703125   0.609375 0
  0.687500   0.609375 0
  0.656250   0.609375 0
  0.625000   0.609375 0
  0.593750   0.609375 0
  0.562500   0.609375 0
  0.546875   0.609375 0
  0.531250   0.609375 0
  0.515625   0.609375 0
  0.984375   0.593750 0
  0.953125   0.593750 0
  0.921875   0.593750 0
  0.890625   0.593750 0
  0.859375   0.593750 0
  0.843750   0.593750 0
  0.812500   0.593750 0
  0.781250   0.593750 0
  0.750000   0.593750 0
  0.734375   0.593750 0
  0.718750   0.593750 0
  0.687500   0.593750 0
  0.671875   0.593750 0
  0.640625   0.593750 0
  0.609375   0.593750 0
  0.578125   0.593750 0
  0.562500   0.593750 0
  0.546875   0.593750 0
  0.531250   0.593750 0
  0.515625   0.593750 0
  0.968750   0.578125 0
  0.937500   0.578125 0
  0.906250   0.578125 0
  0.875000   0.578125 0
  0.890625   0.562500 0
  0.843750   0.578125 0
  0.828125   0.578125 0
  0.796875   0.578125 0
  0.765625   0.578125 0
  0.734375   0.578125 0
  0.703125   0.578125 0
  0.671875   0.578125 0
  0.656250   0.578125 0
  0.656250   0.562500 0
  0.625000   0.578125 0
  0.640625   0.562500 0
  0.593750   0.578125 0
  0.562500   0.578125 0
  0.546875   0.578125 0
  0.531250   0.578125 0
  0.515625   0.578125 0
  0.859375   0.562500 0
  0.828125   0.562500 0
  0.781250   0.562500 0
  0.750000   0.562500 0
  0.718750   0.562500 0
  0.687500   0.562500 0
  0.609375   0.562500 0
  0.578125   0.562500 0
  0.562500   0.562500 0
  0.546875   0.562500 0
  0.531250   0.562500 0
  0.515625   0.562500 0
  1.000000   0.812500 0
  0.578125   0.031250 0
  0.875000   0.546875 0
  0.625000   0.546875 0
  0.218750   0.000000 0
  0.640625   0.781250 0
  0.828125   0.093750 0
  0.031250   0.531250 0
  0.296875   0.328125 0
  0.296875   0.312500 0
  0.281250   0.312500 0
  0.765625   0.312500 0
  0.031250   0.859375 0
  0.093750   0.265625 0
  0.109375   0.250000 0
  0.187500   0.671875 0
  0.421875   0.640625 0
  0.031250   0.062500 0
  0.140625   0.125000 0
  0.562500   0.906250 0
  0.125000   0.437500 0
  0.203125   0.937500 0
  0.125000   0.421875 0
  0.140625   0.406250 0
  0.093750   0.437500 0
  0.109375   0.421875 0
  0.093750   0.421875 0
  0.109375   0.406250 0
  0.328125   0.125000 0
  0.750000   0.906250 0
  0.328125   0.109375 0
  0.750000   0.890625 0
  0.312500   0.125000 0
  0.734375   0.906250 0
  0.281250   0.343750 0
  0.265625   0.359375 0
  0.500000   0.796875 0
  0.078125   0.015625 0
  0.062500   0.015625 0
  0.484375   0.796875 0
  0.484375   0.781250 0
  0.062500   0.000000 0
  0.015625   0.250000 0
  0.062500   0.046875 0
  0.484375   0.828125 0
  0.484375   0.812500 0
  0.062500   0.031250 0
  0.281250   0.671875 0
  0.062500   0.234375 0
  0.328125   0.765625 0
  0.312500   0.750000 0
  0.015625   0.671875 0
  0.781250   0.187500 0
  0.015625   0.265625 0
  0.453125   0.250000 0
  0.453125   0.234375 0
  0.031250   0.265625 0
  0.046875   0.250000 0
  0.093750   0.015625 0
  0.265625   0.656250 0
  0.734375   0.281250 0
  0.156250   0.015625 0
  0.062500   0.265625 0
  0.046875   0.281250 0
  0.031250   0.281250 0
  0.343750   0.781250 0
  0.328125   0.781250 0
  0.265625   0.687500 0
  0.265625   0.703125 0
  0.156250   0.109375 0
  0.578125   0.890625 0
  0.484375   0.984375 0
  0.062500   0.203125 0
  0.328125   0.718750 0
  0.343750   0.734375 0
  0.343750   0.750000 0
  0.453125   0.500000 0
  0.437500   0.500000 0
  0.234375   0.093750 0
  0.171875   0.375000 0
  0.437500   0.531250 0
  0.468750   0.546875 0
  0.453125   0.546875 0
  0.187500   0.015625 0
  0.187500   0.000000 0
  0.609375   0.781250 0
[...]
CELL_DATA 7648
SCALARS scalar_value float 1
LOOKUP_TABLE default
0.201634
0.192085
0.181512
0.195705
4.87974e-07
3.32267e-07
3.45461e-07
2.37811e-07
0.187088
0.177426
0.175742
5.78565e-07
2.94239e-07
4.78737e-07
0.23321
0.227897
0.226889
0.220192
0.0148219
0.0142196
0.0160991
0.0125807
0.000111679
0.00180927
0.00192661
0.00266962
0.00155362
0.0678622
0.0606483
1.85469e-05
2.11356e-05
2.96879e-05
1.33937e-05
4.61131e-05
5.13994e-05
6.97444e-05
3.37291e-05
1.01045e-05
1.18703e-05
1.63295e-05
0.000120654
0.000250228
0.018461
0.0143965
0.0118334
0.00236485
0.00190926
0.0018574
0.000409538
0.00346987
0.000136246
0.00130161
0.000796536
0.000781803
0.00023603
0.00240152
0.000160954
0.000163475
0.00069723
0.000979535
0.00137286
0.00528745
0.000519826
4.85459e-05
5.98867e-05
3.59642e-08
4.17875e-08
0.000781611
0.014069
1.43864e-06
0.11123
0
0.0306232
0.0329004
0.000227965
2.36639e-08
0.112915
4.22633e-08
0.00010702
0.0347059
0.0333022
6.09442e-10
1.40474e-06
2.7397e-08
0.000434954
3.75366e-05
0.0891542
0.0841241
8.31607e-06
0
3.25485e-05
1.37536e-08
0.0172703
0.02038
8.82898e-09
0.00104433
0.00186672
0.00188246
0.00254166
0.00188928
0.0322672
0.000665462
0.0306999
0.0310873
0.00154765
0.00787836
0.14424
0.000453391
0.000250448
5.16079e-05
0.000977237
0.000398078
0.000305294
1.85769e-08
0.0246151
1.57518e-08
0.0281556
0.0208683
0.000411299
3.31008e-07
2.2575e-07
1.14434e-10
7.89114e-09
0.00415165
2.92776e-09
5.82772e-09
3.10005e-09
0.0399211
0.0299927
0.0431717
2.41723e-08
0.00629865
9.43953e-09
4.26548e-06
0.156278
1.92582e-06
0.138169
0.00100436
7.95266e-05
0.001705
0.000151633
0.0014112
0.00140082
3.4724e-05
0.00120913
0.00275804
1.0949e-07
0.000975918
7.4404e-05
2.19994e-05
1.65081e-05
0.00311343
0.00388326
0.00482509
1.04742e-09
1.83652e-09
5.67854e-06
5.21999e-05
0.00377102
0.00102881
0
0.0164948
0.0186248
0.0366081
0.00463719
0.00314098
2.90989e-05
0.00403125
0.00386414
4.23351e-07
1.1956e-08
0.0128058
0.000782984
6.05746e-09
0.000338293
0.000501441
1.97463e-06
0.00816646
0.032233
0.00830743
0.00581656
0.0307151
0.000322576
0.0857879
3.1505e-09
0.00426128
0.000225127
1.29459e-09
2.59008e-09
0.0402641
2.12364e-09
0.0255926
9.45313e-05
6.3594e-07
0.000196203
7.37397e-05
8.034e-05
5.7072e-05
4.20121e-08
5.62501e-08
5.19014e-08
8.5203e-05
0.00940367
0.000133728
0.000139021
0.00352046
0.00181437
1.39691e-06
7.55885e-07
1.12769e-06
0.000397667
0.000592079
0.000836743
0.000541097
0.021481
0.0276329
0
3.51515e-07
4.89736e-10
0.00440819
0.00444262
0.0187245
0.0138728
7.5765e-05
0.0200551
1.31727e-05
0.00340531
0.00314548
0.0233704
0.0261166
1.6524e-05
2.66908e-05
0.0264601
0.0402909
2.79025e-05
1.96389e-05
1.62777e-05
1.60047e-05
0.0157992
2.32835e-09
0.0153573
8.70564e-10
0.103043
1.32742e-05
1.02281e-05
0.0264786
0.131145
0.0315869
0.0246577
1.20411e-05
0.0345267
0.000112021
0.0015578
0.00185314
0.00155443
0.120315
0.0402885
1.59482e-05
9.21435e-06
0.0116708
0.0134312
0.0126908
0.00251131
0.000439948
0.000100159
0.0317835
4.7263e-05
0.00807752
2.60199e-05
0.0503182
0.00171601
0.00554699
1.19672e-10
3.16597e-07
6.57587e-09
5.49473e-05
1.27763e-06
6.81046e-05
0.0797044
0.0924314
0.000103451
0.190536
9.82926e-05
2.18574e-09
0.116905
9.87324e-05
1.53781e-09
6.10179e-05
1.00885e-06
0.00257692
2.09361e-06
5.66881e-07
0.000530428
2.15623e-07
0.055887
0.0539067
2.28567e-07
0.0601397
4.30084e-09
0.000129758
0.00168223
0.150266
1.17737e-08
3.07379e-05
0.00871505
0.00728625
0.00650743
0.0189542
0.000150052
0.0524408
0.0470445
0.00322767
9.21937e-07
5.40874e-07
3.04828e-06
0.0293533
0.0273928
4.1337e-06
0.0239361
0.0306906
0.0203719
0.00625833
0.201128
0.0133991
0.00763044
0.00883399
0.00257369
0.0113582
0.00950384
0.00499687
0.0037576
0.00293227
0.00325365
0.220415
3.28993e-08
0.229153
2.37685e-08
4.68262e-06
4.18189e-06
0.000936765
0.0168846
5.49267e-06
3.76483e-06
7.21766e-10
2.31913e-07
0.249393
0.248492
4.87772e-09
6.74276e-07
3.75482e-08
6.20408e-08
5.18823e-08
0.0160974
0.000565874
1.56178e-05
0.00116986
5.14719e-05
1.61962e-07
1.566e-07
1.13392e-07
0.0161311
0.0162369
0.0203155
0.184735
0.00789395
9.44568e-06
0.00269862
2.43353e-07
4.04246e-06
3.54655e-06
0.0111961
0.175152
2.59305e-05
0.0586819
1.41776e-05
0.035105
1.40558e-08
3.36784e-06
0.000220247
0.00731937
0.0483012
0.000758762
0.00283044
0.000428883
0.018772
0.0576619
0.0167807
0.144666
0.000170757
1.89957e-05
9.37249e-06
0.198401
2.90408e-05
1.26928e-05
0.000101086
4.20569e-05
0.000379178
3.39074e-06
7.27564e-07
0.219536
1.11331e-05
0.000260789
0.00550428
0.000278614
0.00379142
0.19887
7.37738e-05
0.0978072
8.17584e-05
2.61109e-05
9.58147e-09
0.000169213
0.000184514
7.30501e-08
0.124538
0.000135483
4.56058e-08
0.000104758
2.76502e-05
0.141927
0.116389
0.172959
1.79744e-07
0.00354813
0.0134948
0.0120825
7.85475e-08
0.0123306
0.000282974
0.000931732
0.00897995
0.00153307
0.00072806
1.07066e-05
0.000788073
0.000493239
0.000199698
1.56895e-09
3.63999e-05
0.0235298
0.00810446
0.029634
0.00613998
0.0100131
0.000715911
0.0131556
0.00058881
0.000514324
0.0175868
0.0132044
2.37322e-05
0.00155863
0.000732249
0.0020612
0.0155087
0.00103647
0.00130723
0.00109678
0.000543991
6.54471e-06
6.08356e-05
0.00331532
0.0307007
0.021686
1.26876e-10
0.000568785
0.000462056
5.81421e-06
6.19239e-10
2.17543e-05
0.024709
1.82315e-06
0.0897261
2.11622e-08
2.17152e-06
0.0847695
0.000520432
0.0258608
5.81804e-10
0.027929
3.98208e-09
0.0642534
1.4806e-08
6.27355e-09
0.0631539
0.0573031
0.0471897
0.00620173
0.00189776
0.00230406
7.5107e-07
0.0353786
1.04565e-06
0.0773797
0.00027315
2.16201e-07
0.000612941
2.3106e-07
0.0283478
0.000380248
0.000286293
0.000254847
0.056202
2.16713e-05
1.54015e-05
0.00108475
0.00090511
0.00071626
0.0006122
0.000583025
1.29928e-06
0.00148847
0.00121881
8.19954e-06
0.00108292
0.000200358
0.0422806
0.000801381
0.000171623
0.0361244
0.000646314
0.00161909
9.55766e-05
0.000157229
1.89879e-05
0.0233936
1.48903e-06
0.00281945
0.0206782
0.0161364
0.0031875
0.000196611
3.85019e-08
0.000272153
0.00132525
0.000139984
0.00107662
0.000230155
0.000839428
0.00136104
0.00112747
0.000704639
7.20348e-05
6.1009e-05
2.78215e-05
0.122588
3.72025e-08
0.0238739
1.3655e-05
0.019473
0.0190922
2.97857e-06
0.0508512
0.0462992
0.0799955
0.063051
0.0827611
0.00548152
0.000311147
0.000118451
0.00561789
0.000199427
7.09488e-05
0.000311922
0.023995
0.0105399
0.00123091
0.0244559
0.0262243
0.0221385
0.00435007
1.14691e-05
0.0202843
0.003925
0.000296126
0.134923
0.000933924
0.000154211
8.01825e-08
0.0149336
0.0701688
0.0732202
8.89018e-05
0.00013468
8.96381e-06
5.85975e-05
0.246636
0.00875697
5.33997e-05
0.00336297
0.00224069
3.02723e-08
4.02073e-05
0.000517325
1.05888e-05
0.00127041
0.192892
0.0675462
0.000319145
0.0401789
0.000421935
0.00028552
1.63937e-05
0.000200712
0.0630306
2.99377e-09
0.000234777
8.88551e-09
0.167808
4.25368e-07
3.12977e-07
2.16171e-07
0.000910592
0.00099649
0.00110663
0.0127417
1.66683e-05
0.0108191
0.000381691
3.91794e-06
0.0013145
7.14564e-06
6.80171e-06
0.000299836
1.14289e-09
0.000378831
0.000233573
5.20907e-06
7.8663e-06
0.000253685
0.000376409
1.70129e-05
3.23171e-06
2.94243e-06
6.22162e-06
0.0689887
3.57206e-06
0.0303473
0.202777
0.194984
1.10535e-06
1.71058e-06
0.12586
8.82366e-05
0.000494898
0.0221367
1.33153e-06
1.60229e-05
2.47529e-05
3.55581e-08
0.00166795
0.0159458
0.0177576
2.19668e-05
9.83437e-08
0.118255
2.29812e-05
0.100846
0.182187
0.0698393
0.0193533
0.14244
0.062675
0.00022338
0.000205747
0.000178371
0.000279648
0.000302263
1.4708e-09
2.79868e-09
1.6144e-09
0.00239326
1.42912e-06
0.00081016
9.82928e-07
0.000194398
0.224952
0.217258
0.209543
0.000596459
0.000604157
0.000458916
0.137538
2.74711e-09
0.150679
0.0143171
0.0035215
0.016043
2.19743e-05
2.90223e-10
0.0127006
0.0106328
8.7493e-05
0.0777146
0.0114169
0.00750514
0.108441
0.00855208
5.56205e-05
0.00248238
0.00323513
5.38811e-07
0.0685528
0.0397574
0.0758175
0.0229806
0.0435204
0.0397803
0.000244446
0.000217748
7.35313e-05
5.09819e-05
4.00897e-05
0.0350246
0.0382409
9.69287e-05
8.21013e-05
0.0027871
0.0143421
9.91536e-05
5.79035e-05
0.0719037
0.0644791
0.0595429
0.000277055
0.000235708
0.0391846
0.000168095
0.083288
0.0923767
0.0863639
0.000742834
0.000638312
0.000464379
0.00446401
0.00289228
0.21804
0.00161012
0.00187584
0.00119984
4.01917e-06
0.00158718
0.00097371
0.00101064
0.00161447
0.0831786
0.084039
0.0750141
0.197717
0.000896395
0.00162204
0.00149099
0.00112852
0.000153538
0.000334305
0.000200236
0.000228803
0.000388039
0.000320267
4.27111e-07
6.24641e-06
0.0016252
1.4833e-05
2.92277e-05
0.000586882
3.71129e-05
2.75343e-09
0.000920039
0.00853467
0.0541832
0.0478521
0.0472469
0.142212
0.133827
0.126436
0.00672186
8.92805e-06
0.00782213
0.00602559
0.137113
0.128865
0.0479427
0.0677254
6.9832e-08
1.54927e-07
2.51245e-07
0.162877
0.156638
9.44134e-06
0.00783316
0.00607125
0.000113292
0.0270821
0.00641398
5.69059e-07
0.0419807
0.00488017
0.000121605
1.49149e-05
0.000109073
3.34286e-06
5.76465e-05
7.80398e-05
0.0119812
0.157646
2.9177e-05
0.0528589
0.130032
0.0232982
0.0128484
0.135825
2.61141e-07
0.0528885
0.000655907
0.0452744
0.0451695
0.0397949
0.10337
0.0165629
0.0108767
1.19187e-05
1.74938e-05
3.76433e-07
9.43298e-05
4.88026e-05
3.22615e-07
0.000241019
0.0622316
6.14283e-08
0.00762573
1.16544e-07
0.00324561
0.0352641
0.0320196
0.0356854
0.0988699
0.0935404
1.30615e-07
0.000417319
0.000501168
0.00210391
0.131781
0.116846
1.75281e-09
0.00212298
4.56718e-05
0.00025549
0.00111198
0.00472405
0.0057879
1.14648e-09
0.155277
0.0229504
0.0194076
0.177563
0.0196437
7.97807e-05
0.0581717
0.136063
0.106459
0.0147579
0.00118435
0.0117414
1.35448e-09
0.00033901
2.38016e-07
2.55951e-06
0.0039218
0.0241545
0.000706823
0.00218135
0.0200745
0.00161244
1.40704e-09
2.64889e-09
1.17588e-09
0.0134597
0.000982693
1.35e-08
0.0357186
7.67469e-10
0.0429064
0.00113354
0.000916499
2.912e-10
0.00336985
0.0178384
0.0154593
0.0064536
6.58146e-10
2.89428e-10
0.220494
0.205047
0.220298
6.63069e-05
0.0465461
4.25621e-08
1.43311e-08
0.0663923
0.0574641
0.0854127
0.0530001
5.49478e-05
1.95165e-05
2.28893e-08
0.00501669
2.0898e-05
0.0053086
0.00346034
0.107908
0.0130976
0.00683831
0.106403
0.000362249
0.000260678
9.61962e-09
0.00268158
0.00222636
0.00330581
0.00346912
0.00683005
7.08962e-07
0.000347784
0.00430295
0.00205014
0.00110272
0.00138469
0.00609139
0.00100692
0.00101589
7.16961e-06
7.85146e-07
0.01994
0.0202934
0.0176036
0.0305683
0.0281288
0.0336063
0.0173838
0.00983204
0.0354105
0.0155505
0.000389162
0.0246766
0.0026679
0.0225181
3.34282e-05
1.01583e-08
0.000696502
1.02456e-05
0.000718561
0.00267403
0.00482492
0.00251038
0.02628
0.0651619
0.0813818
1.05311e-06
5.11162e-07
0.000865472
2.48054e-05
1.96881e-05
0
2.1718e-07
5.01461e-06
4.63098e-09
4.3542e-08
0.13708
0.0067579
1.37206e-09
2.96356e-10
0.000268109
0.000410364
0
0.0484875
0.000378766
3.13952e-06
1.63354e-08
4.12207e-06
1.92558e-06
0.00674626
3.83616e-06
4.02638e-09
0.0109021
0.000652328
0.00018489
0.00561187
0.000959669
0.000953107
0.00118163
9.05337e-05
0.0260918
8.54813e-09
0.14478
0.00551166
0.0200097
0.0141149
0.0062738
7.90894e-06
0.0419003
3.52177e-09
0.00932058
0.0106994
0.00126338
8.99783e-06
0.01129
5.22017e-06
0.00754562
0.0443148
6.00773e-05
4.92598e-06
1.84126e-08
0.000232094
0.0137401
0.0409717
0.138671
3.03699e-08
0.0135918
0.13118
0.107564
0.123181
0.00951278
0.000233636
0.00396871
0.0359245
0.0213848
0.151183
3.01249e-05
1.73992e-06
5.50503e-08
3.06678e-06
3.71911e-07
2.06581e-06
9.51895e-05
8.05121e-07
0.185067
0.0790271
0.0387393
1.67135e-07
0.00275138
0.00268511
0.0782339
0.0125961
9.24823e-06
1.10713e-06
7.15705e-05
0.0591427
0
1.15053e-08
7.85237e-09
0.00720916
4.79989e-07
0.0749389
3.47417e-07
0.000147007
4.80333e-05
0.00547401
0.00783486
0.00412761
3.30272e-09
0.0136564
8.94364e-08
5.13218e-06
0.000905445
0.00410875
3.20491e-05
0.00588842
0.0328148
0.173854
0.00869018
1.15028e-07
0.00424851
0.00406839
0.000725585
0.000632626
0.00458427
0.000264738
8.06321e-08
2.24786e-06
0
0.000511282
1.62738e-07
0
0.0550991
0.000382571
0.00134992
2.34413e-07
1.86402e-09
1.21175e-07
0
0.00184204
0.14949
0.000332184
7.31259e-09
0.00213598
4.03868e-06
8.35611e-08
0.107193
0.00301649
0.00189543
0
0.00012018
0.000657871
0.186664
0.00308344
0.0112225
1.01775e-05
0.0018243
0.0125634
0.000190081
0.0037679
0.00517862
0.00388111
0.00684094
2.6537e-05
0.213515
0.00192715
2.2203e-09
0.0433671
9.96272e-08
0.00289033
0.000561578
2.94048e-09
0.0083772
1.7771e-09
0.236066
0.0408757
0.00412669
5.12284e-06
0.149385
2.44903e-05
0.214401
0.000454729
0.00022165
0.00245726
3.20736e-05
0.0090964
5.30064e-06
0.134822
2.87616e-05
8.51473e-07
0.178894
0.167568
0.0114714
0.00551386
0.00216701
0.00647523
5.40067e-05
0.0571206
2.53068e-05
5.92591e-06
4.40251e-07
1.72646e-05
0.000306979
1.49443e-06
7.09033e-07
3.04646e-06
0.000493773
0.00185411
0.0404288
0.042462
0.00393763
8.63005e-05
0.000128272
0.00226226
1.07865e-05
0.00548902
0.000457624
0.000595542
0.0641079
0.0435829
0.00476997
0.0868638
0.192195
0.00145525
0.0515857
0.11973
0.00485239
7.5033e-06
0.189949
0.0407757
0.000838527
0.0403639
4.2759e-09
0.159871
0.000789005
9.9089e-08
0.0446379
5.92821e-05
6.34581e-06
1.21647e-06
2.02751e-08
0.00741689
0.00070077
0.000529161
0.000556746
0.0154026
0.0308668
0.0370076
1.60781e-10
0.00112469
0.0367352
0.0759001
0.00227199
0.0237489
2.36048e-08
0.0358925
9.10637e-07
6.42747e-09
0.0434361
0
1.34322e-05
0.0749449
0.000176026
0.064061
1.80281e-10
0.0769136
2.95807e-07
3.50749e-09
0.101331
6.37091e-08
2.93513e-09
0.00574736
0.00667976
0.128131
1.06799e-05
4.43731e-07
0.000131785
0.000864648
0.00260082
0.00287853
1.27394e-07
0.000107978
0.00798282
0.0118495
4.30363e-05
0.00244505
0.131641
0.00494461
0.00433712
0.000131382
4.76416e-05
0.0133456
2.0244e-07
0.136555
0.0100476
0.000289929
8.12165e-07
0.0389902
0.000392241
0.0341968
0.0708116
0.0932684
0.000214507
0.00361271
0.000284569
0.0570486
0.0785723
3.13594e-05
0.0011129
0.0153497
8.95413e-07
0.000757749
0.00223384
1.37543e-08
0.0295366
1.57071e-10
6.62905e-07
0.034531
0
0.000618604
1.59288e-07
0.0205647
0.153905
2.96478e-06
0.000855403
0.000469125
0.0216794
3.7849e-05
1.4273e-05
0.00666441
4.9885e-05
3.37052e-07
3.37157e-07
0.00460929
0.0279152
0.214623
2.72024e-09
1.68675e-08
0.12103
6.41305e-08
3.56019e-10
0.0308162
1.28941e-06
0.000282436
3.82103e-06
1.09541e-06
0.185402
0.143895
5.95141e-08
5.26874e-09
0.155546
3.24435e-10
5.51584e-10
4.27283e-08
2.32188e-09
0.000119775
5.26002e-08
5.12236e-10
0.00210832
0.0542539
0.0603195
0.00444946
8.47811e-08
2.11877e-09
0.088765
0.087124
0.0493451
0.0297652
0.0231571
0.0540233
3.74325e-07
3.72491e-05
0.000922832
0.00012302
2.42668e-06
1.22383e-06
1.11744e-05
0.00119601
0.0537097
0.0234163
0.031608
8.48366e-07
0.00018262
1.50964e-06
2.61174e-05
2.35281e-07
0.0271602
0.000410699
4.18277e-08
0.00519896
0.00216221
0.00909729
0.031029
1.69884e-06
0.00104362
0.00604807
0
0.00434858
3.56792e-07
0.000874766
1.20745e-09
0.00193097
0.00157044
0.00381689
9.42605e-05
0.000954143
0.00150196
1.29589e-10
0.074887
0.0665579
1.7129e-07
0.249155
1.60056e-08
0.000173826
0.0393065
0.0105674
0.0227005
0.000366575
0.000300606
0.0482651
0.000928409
0.0360433
0.00515852
1.13475e-10
0
0.000754055
0.130447
0.0434562
0.0380818
0.160015
0.00246245
0.00938988
7.59159e-09
1.9083e-05
8.26796e-05
0.0191431
0
0.00122611
0.0158682
1.42998e-06
0.000736061
0.0510816
0.000770183
0.000176432
1.81399e-06
5.55731e-10
0.0179991
0.0177708
0.000218085
0.0887368
1.92209e-08
2.67934e-05
0.000148962
0.000343551
9.53912e-09
0.00314416
0.0107131
0.000393037
0.0341428
1.28494e-05
1.8189e-07
2.67928e-08
0.00331898
8.32737e-07
0.00130485
0.00181293
0.00184486
0.000325256
0.0485563
1.17705e-08
2.61291e-06
0.000413852
0
0.000229638
0.00117553
0.00115804
0.000508138
2.6621e-06
0.000231992
0.136927
0.0588535
0.000615789
2.47776e-08
0.000147829
5.96984e-05
0.0178106
0.000165461
2.65154e-06
0.000318815
0.0780911
0.102952
1.69554e-07
0.0918777
0.0739876
8.67773e-10
4.66943e-05
0.00454675
0.00584333
1.02078e-09
0.00116083
0.0518009
0.000771033
0.000273818
1.80775e-07
5.02554e-05
2.82596e-06
0.000598199
0.0471545
0.000253088
0.000220053
0.0149182
0.000149204
1.23428e-06
0.0844684
0.0467946
0.0458653
0.104049
0.000133618
9.734e-06
0.194685
0.212419
0.00247071
4.56958e-07
7.39546e-08
0.00136753
6.94039e-05
0.0317401
8.80876e-05
1.18767e-06
0.00970741
5.71171e-07
0.000969127
0.0266501
7.59173e-09
0.015324
0.00539021
0.160788
0.152516
0.00719746
0.217278
2.13225e-09
0.000114962
2.68274e-06
0.000172507
0.0591473
3.13893e-08
0.116522
0.00502275
0.00297236
9.60669e-07
3.10753e-06
0.00451334
0.00109816
0.143229
4.52388e-08
1.34442e-08
7.10135e-07
0.010744
3.82087e-10
2.44401e-06
0.0383255
0.00145639
0.0203851
0.0229099
0.000690929
0.00041328
2.44832e-07
0.000460571
0.0268788
3.72987e-05
0.00209239
3.77902e-07
0.0996015
3.77242e-05
0.0294805
0.0138818
0.0700547
0.0754922
0.000607788
0.000345458
0.000249289
7.81381e-05
0.168852
0.000138592
0.0284071
5.32458e-08
5.20343e-06
0.12854
6.75226e-08
1.76591e-07
1.21461e-07
0.000674788
0.0288012
0.0259408
0.000156318
0.015453
0.0481726
0.000325558
0.034615
0.0378926
0.00080866
7.30631e-07
0.00192007
0.0524901
0.0323557
0.000154442
6.00089e-10
6.22537e-07
4.3711e-05
7.86042e-05
0.0295915
2.28343e-06
5.99359e-05
6.17535e-06
0.00274796
0.00381102
7.83668e-05
5.40177e-08
0.0529207
0.000187026
1.43748e-09
0
0.00531214
0.0593704
0.000165988
4.12012e-08
0.000230228
0.000205451
0.000344165
4.00911e-05
0.000522367
0.0502255
0.0178593
4.52555e-05
0.00733334
6.76592e-07
0.000627883
0.00243312
0
0.00123731
0
4.96263e-09
0.100949
0.00280154
0.0141333
7.93592e-10
9.93445e-06
0.00271874
0.00897428
0.0098435
5.24462e-06
9.93942e-05
0.000129039
0.0540733
0.0570606
1.26024e-07
0.0235284
0.0271595
1.27635e-05
0.00354189
7.70053e-05
3.23064e-05
0.00420346
1.89903e-06
0.0385949
1.72408e-05
0.000180966
0.000651427
2.9805e-05
2.70948e-05
6.61938e-06
0.00071721
1.34173e-06
4.28263e-05
0.0318473
0.0548046
4.77401e-07
0.000156857
0.0522104
0.215818
3.43299e-05
0.00190844
0.0123475
0.000337576
0.208027
0.033797
0.000429524
0.199498
0.0359951
0.209392
0.0187999
0.000173566
1.83381e-05
0.00257676
0.00822681
0.0607083
0.0517323
0.0116592
0.000103788
3.80259e-07
0.00248676
0.133302
0.0688875
1.53837e-05
6.06903e-05
0.000343588
3.73373e-07
1.32226e-05
0.0493362
0.0216257
8.99207e-10
0.053162
0.00166417
7.88899e-05
0.00686794
0.00085299
0.000284211
3.92691e-06
4.93924e-06
0.00675823
0.010755
8.54284e-05
0.00501264
0.00994862
0.00999595
0.00243121
0.00767514
0.000119619
0.000200507
3.89323e-10
0.00322688
0.00246354
3.03069e-06
6.57698e-07
0.0105123
0.00035285
2.05636e-06
4.01946e-07
0.00243554
0.00515688
3.89326e-05
0.165675
0.058009
8.47934e-09
0.237153
0.0054394
0.00335658
1.73876e-06
4.06363e-07
0.000128696
0.00968715
0.0395615
0.0329289
0.0117625
2.35535e-05
0.00961245
0.226557
8.78275e-07
7.15431e-07
0.00406141
0.00369398
0.000109761
7.32278e-07
0.0233761
0.00229555
9.02441e-05
3.97665e-07
1.11336e-05
1.66702e-09
6.25108e-06
2.32355e-07
5.0003e-06
0.00715945
0.0114236
0.0532388
0.152698
0.110475
0.0281038
4.28557e-06
1.59793e-06
0.0973195
2.29917e-06
1.58872e-06
6.15026e-08
0.0291933
6.70957e-07
0.00601121
0.000484386
0
0
0.0518342
0.000138312
0
0.00139973
0.00126947
0.000113238
0.0519329
0.00597084
0
0.0653651
0.0139392
0.0196218
8.15912e-06
0.00450408
0.00269894
0.00105235
1.68758e-10
1.51757e-10
0.0457459
0.00452738
0.0018121
0.000503126
0.00928133
3.8777e-10
6.44916e-08
1.76333e-09
0.0263862
4.37851e-08
0.00170118
0.0318267
0.224502
1.91679e-09
6.83809e-10
0.00100955
4.77967e-07
0.000654322
0.000401533
0.000953129
6.95301e-06
0.204454
0.00176184
0.200037
0.00185189
0.198379
5.22978e-06
0.000473913
0.00284387
0.214471
0.000135261
0.00131339
0.00491906
0.000356926
0.00159993
0.00539444
0.000571727
0.00121778
4.60394e-07
0.0161352
4.98147e-05
0.000357879
8.08286e-06
2.09075e-06
0.00139677
8.64896e-08
6.68437e-08
0.0834183
0.0860015
0.00014655
2.70972e-07
0.00173543
0.00779573
0.074772
0.0804424
0.20148
6.05166e-09
1.23302e-08
1.01902e-06
4.15901e-08
0.00138848
1.18599e-07
0.00303129
7.86707e-05
4.86349e-05
0.000122125
0.000974683
7.67414e-05
0.000111496