# vtk DataFile Version 2.0
Unstructured Grid by M++
ASCII
DATASET UNSTRUCTURED_GRID
POINTS 4072 float
  0.609375   0.843750 0
  0.562500   0.843750 0
  0.531250   0.843750 0
  0.875000   0.828125 0
  0.984375   0.828125 0
  0.953125   0.828125 0
  0.937500   0.828125 0
  0.843750   0.828125 0
  0.812500   0.828125 0
  0.781250   0.828125 0
  0.765625   0.828125 0
  0.734375   0.828125 0
  0.703125   0.828125 0
  0.671875   0.828125 0
  0.640625   0.828125 0
  0.609375   0.828125 0
  0.593750   0.828125 0
  0.562500   0.828125 0
  0.546875   0.828125 0
  0.531250   0.828125 0
  0.515625   0.828125 0
  0.968750   0.812500 0
  0.937500   0.812500 0
  0.921875   0.812500 0
  0.890625   0.812500 0
  0.859375   0.812500 0
  0.828125   0.812500 0
  0.796875   0.812500 0
  0.765625   0.812500 0
  0.750000   0.812500 0
  0.718750   0.812500 0
  0.687500   0.812500 0
  0.656250   0.812500 0
  0.625000   0.812500 0
  0.593750   0.812500 0
  0.578125   0.812500 0
  0.546875   0.812500 0
  0.531250   0.812500 0
  0.515625   0.812500 0
  0.984375   0.796875 0
  0.562500   0.015625 0
  0.953125   0.796875 0
  0.921875   0.796875 0
  0.906250   0.796875 0
  0.875000   0.796875 0
  0.843750   0.796875 0
  0.812500   0.796875 0
  0.781250   0.796875 0
  0.750000   0.796875 0
  0.734375   0.796875 0
  0.703125   0.796875 0
  0.671875   0.796875 0
  0.640625   0.796875 0
  0.609375   0.796875 0
  0.578125   0.796875 0
  0.562500   0.796875 0
  0.531250   0.796875 0
  0.515625   0.796875 0
  0.968750   0.781250 0
  0.546875   0.000000 0
  0.937500   0.781250 0
  0.906250   0.781250 0
  0.890625   0.781250 0
  0.859375   0.781250 0
  0.828125   0.781250 0
  0.796875   0.781250 0
  0.765625   0.781250 0
  0.734375   0.781250 0
  0.718750   0.781250 0
  0.687500   0.781250 0
  0.656250   0.781250 0
  0.625000   0.781250 0
  0.593750   0.781250 0
  0.562500   0.781250 0
  0.546875   0.781250 0
  0.515625   0.781250 0
  0.984375   0.765625 0
  0.953125   0.765625 0
  0.921875   0.765625 0
  0.890625   0.765625 0
  0.875000   0.765625 0
  0.843750   0.765625 0
  0.812500   0.765625 0
  0.781250   0.765625 0
  0.750000   0.765625 0
  0.718750   0.765625 0
  0.703125   0.765625 0
  0.671875   0.765625 0
  0.640625   0.765625 0
  0.609375   0.765625 0
  0.578125   0.765625 0
  0.593750   0.750000 0
  0.562500   0.765625 0
  0.546875   0.765625 0
  0.531250   0.765625 0
  0.562500   0.750000 0
  0.968750   0.750000 0
  0.937500   0.750000 0
  0.906250   0.750000 0
  0.875000   0.750000 0
  0.859375   0.750000 0
  0.828125   0.750000 0
  0.796875   0.750000 0
  0.765625   0.750000 0
  0.734375   0.750000 0
  0.703125   0.750000 0
  0.687500   0.750000 0
  0.671875   0.750000 0
  0.656250   0.750000 0
  0.625000   0.750000 0
  0.546875   0.750000 0
  0.531250   0.750000 0
  0.515625   0.750000 0
  0.562500   0.734375 0
  0.984375   0.734375 0
  0.953125   0.734375 0
  0.921875   0.734375 0
  0.890625   0.734375 0
  0.859375   0.734375 0
  0.843750   0.734375 0
  0.812500   0.734375 0
  0.781250   0.734375 0
  0.750000   0.734375 0
  0.718750   0.734375 0
  0.687500   0.734375 0
  0.671875   0.734375 0
  0.656250   0.734375 0
  0.640625   0.734375 0
  0.546875   0.734375 0
  0.531250   0.734375 0
  0.515625   0.734375 0
  0.562500   0.718750 0
  0.968750   0.718750 0
  0.937500   0.718750 0
  0.906250   0.718750 0
  0.875000   0.718750 0
  0.843750   0.718750 0
  0.796875   0.718750 0
  0.765625   0.718750 0
  0.734375   0.718750 0
  0.703125   0.718750 0
  0.687500   0.718750 0
  0.671875   0.718750 0
  0.656250   0.718750 0
  0.625000   0.718750 0
  0.546875   0.718750 0
  0.531250   0.718750 0
  0.515625   0.718750 0
  0.562500   0.703125 0
  0.953125   0.703125 0
  0.921875   0.703125 0
  0.890625   0.703125 0
  0.859375   0.703125 0
  0.828125   0.703125 0
  0.781250   0.703125 0
  0.750000   0.703125 0
  0.718750   0.703125 0
  0.687500   0.703125 0
  0.656250   0.703125 0
  0.546875   0.703125 0
  0.531250   0.703125 0
  0.515625   0.703125 0
  0.984375   0.687500 0
  0.937500   0.687500 0
  0.921875   0.687500 0
  0.906250   0.687500 0
  0.875000   0.687500 0
  0.843750   0.687500 0
  0.812500   0.687500 0
  0.765625   0.687500 0
  0.734375   0.687500 0
  0.703125   0.687500 0
  0.671875   0.687500 0
  0.640625   0.687500 0
  0.593750   0.687500 0
  0.562500   0.687500 0
  0.546875   0.687500 0
  0.531250   0.687500 0
  0.515625   0.687500 0
  0.968750   0.671875 0
  0.937500   0.671875 0
  0.921875   0.671875 0
  0.906250   0.671875 0
  0.890625   0.671875 0
  0.859375   0.671875 0
  0.828125   0.671875 0
  0.796875   0.671875 0
  0.765625   0.671875 0
  0.750000   0.671875 0
  0.718750   0.671875 0
  0.687500   0.671875 0
  0.656250   0.671875 0
  0.625000   0.671875 0
  0.593750   0.671875 0
  0.578125   0.671875 0
  0.546875   0.671875 0
  0.531250   0.671875 0
  0.515625   0.671875 0
  0.984375   0.656250 0
  0.953125   0.656250 0
  0.937500   0.656250 0
  0.921875   0.656250 0
  0.906250   0.656250 0
  0.875000   0.656250 0
  0.843750   0.656250 0
  0.812500   0.656250 0
  0.781250   0.656250 0
  0.750000   0.656250 0
  0.734375   0.656250 0
  0.703125   0.656250 0
  0.671875   0.656250 0
  0.640625   0.656250 0
  0.609375   0.656250 0
  0.578125   0.656250 0
  0.562500   0.656250 0
  0.531250   0.656250 0
  0.515625   0.656250 0
  0.968750   0.640625 0
  0.937500   0.640625 0
  0.906250   0.640625 0
  0.890625   0.640625 0
  0.859375   0.640625 0
  0.828125   0.640625 0
  0.796875   0.640625 0
  0.765625   0.640625 0
  0.734375   0.640625 0
  0.718750   0.640625 0
  0.687500   0.640625 0
  0.656250   0.640625 0
  0.625000   0.640625 0
  0.593750   0.640625 0
  0.562500   0.640625 0
  0.546875   0.640625 0
  0.515625   0.640625 0
  0.984375   0.625000 0
  0.953125   0.625000 0
  0.921875   0.625000 0
  0.890625   0.625000 0
  0.875000   0.625000 0
  0.843750   0.625000 0
  0.812500   0.625000 0
  0.781250   0.625000 0
  0.750000   0.625000 0
  0.734375   0.625000 0
  0.718750   0.625000 0
  0.703125   0.625000 0
  0.671875   0.625000 0
  0.640625   0.625000 0
  0.609375   0.625000 0
  0.578125   0.625000 0
  0.562500   0.625000 0
  0.546875   0.625000 0
  0.531250   0.625000 0
  0.968750   0.609375 0
  0.937500   0.609375 0
  0.906250   0.609375 0
  0.875000   0.609375 0
  0.859375   0.609375 0
  0.828125   0.609375 0
  0.796875   0.609375 0
  0.765625   0.609375 0
  0.750000   0.609375 0
  0.734375   0.609375 0
  0.718750   0.609375 0
  0.703125   0.609375 0
  0.687500   0.609375 0
  0.656250   0.609375 0
  0.625000   0.609375 0
  0.593750   0.609375 0
  0.562500   0.609375 0
  0.546875   0.609375 0
  0.531250   0.609375 0
  0.515625   0.609375 0
  0.984375   0.593750 0
  0.953125   0.593750 0
  0.921875   0.593750 0
  0.890625   0.593750 0
  0.859375   0.593750 0
  0.843750   0.593750 0
  0.812500   0.593750 0
  0.781250   0.593750 0
  0.750000   0.593750 0
  0.734375   0.593750 0
  0.718750   0.593750 0
  0.687500   0.593750 0
  0.671875   0.593750 0
  0.640625   0.593750 0
  0.609375   0.593750 0
  0.578125   0.593750 0
  0.562500   0.593750 0
  0.546875   0.593750 0
  0.531250   0.593750 0
  0.515625   0.593750 0
  0.968750   0.578125 0
  0.937500   0.578125 0
  0.906250   0.578125 0
  0.875000   0.578125 0
  0.890625   0.562500 0
  0.843750   0.578125 0
  0.828125   0.578125 0
  0.796875   0.578125 0
  0.765625   0.578125 0
  0.734375   0.578125 0
  0.703125   0.578125 0
  0.671875   0.578125 0
  0.656250   0.578125 0
  0.656250   0.562500 0
  0.625000   0.578125 0
  0.640625   0.562500 0
  0.593750   0.578125 0
  0.562500   0.578125 0
  0.546875   0.578125 0
  0.531250   0.578125 0
  0.515625   0.578125 0
  0.859375   0.562500 0
  0.828125   0.562500 0
  0.781250   0.562500 0
  0.750000   0.562500 0
  0.718750   0.562500 0
  0.687500   0.562500 0
  0.609375   0.562500 0
  0.578125   0.562500 0
  0.562500   0.562500 0
  0.546875   0.562500 0
  0.531250   0.562500 0
  0.515625   0.562500 0
  1.000000   0.812500 0
  0.578125   0.031250 0
  0.875000   0.546875 0
  0.625000   0.546875 0
  0.218750   0.000000 0
  0.640625   0.781250 0
  0.828125   0.093750 0
  0.031250   0.531250 0
  0.296875   0.328125 0
  0.296875   0.312500 0
  0.281250   0.312500 0
  0.765625   0.312500 0
  0.031250   0.859375 0
  0.093750   0.265625 0
  0.109375   0.250000 0
  0.187500   0.671875 0
  0.421875   0.640625 0
  0.031250   0.062500 0
  0.140625   0.125000 0
  0.562500   0.906250 0
  0.125000   0.437500 0
  0.203125   0.937500 0
  0.125000   0.421875 0
  0.140625   0.406250 0
  0.093750   0.437500 0
  0.109375   0.421875 0
  0.093750   0.421875 0
  0.109375   0.406250 0
  0.328125   0.125000 0
  0.750000   0.906250 0
  0.328125   0.109375 0
  0.750000   0.890625 0
  0.312500   0.125000 0
  0.734375   0.906250 0
  0.281250   0.343750 0
  0.265625   0.359375 0
  0.500000   0.796875 0
  0.078125   0.015625 0
  0.062500   0.015625 0
  0.484375   0.796875 0
  0.484375   0.781250 0
  0.062500   0.000000 0
  0.015625   0.250000 0
  0.062500   0.046875 0
  0.484375   0.828125 0
  0.484375   0.812500 0
  0.062500   0.031250 0
  0.281250   0.671875 0
  0.062500   0.234375 0
  0.328125   0.765625 0
  0.312500   0.750000 0
  0.015625   0.671875 0
  0.781250   0.187500 0
  0.015625   0.265625 0
  0.453125   0.250000 0
  0.453125   0.234375 0
  0.031250   0.265625 0
  0.046875   0.250000 0
  0.093750   0.015625 0
  0.265625   0.656250 0
  0.734375   0.281250 0
  0.156250   0.015625 0
  0.062500   0.265625 0
  0.046875   0.281250 0
  0.031250   0.281250 0
  0.343750   0.781250 0
  0.328125   0.781250 0
  0.265625   0.687500 0
  0.265625   0.703125 0
  0.156250   0.109375 0
  0.578125   0.890625 0
  0.484375   0.984375 0
  0.062500   0.203125 0
  0.328125   0.718750 0
  0.343750   0.734375 0
  0.343750   0.750000 0
  0.453125   0.500000 0
  0.437500   0.500000 0
  0.234375   0.093750 0
  0.171875   0.375000 0
  0.437500   0.531250 0
  0.468750   0.546875 0
  0.453125   0.546875 0
  0.187500   0.015625 0
  0.187500   0.000000 0
  0.609375   0.781250 0
[...]
CELL_DATA 7648
SCALARS scalar_value float 1
LOOKUP_TABLE default
0.170083
0.157666
0.142394
0.164436
3.58701e-08
2.31561e-08
2.3879e-08
1.59156e-08
0.153512
0.139179
0.135648
5.15728e-08
2.38664e-08
4.25191e-08
0.258275
0.256702
0.251387
0.255971
0.0263353
0.0252986
0.0284436
0.022489
0.000101016
0.00334699
0.0035549
0.00488731
0.00288032
0.0398729
0.0346119
2.23746e-05
2.50411e-05
3.5453e-05
1.52504e-05
5.4368e-05
5.93046e-05
8.09542e-05
3.72924e-05
1.07485e-05
1.23184e-05
1.70892e-05
0.000234686
0.000481587
0.0111468
0.0080519
0.00645993
0.000655784
0.000502936
0.000475429
0.000609153
0.000972239
2.10842e-05
0.00153247
0.0012548
0.0011746
7.79948e-05
0.00440967
4.84973e-05
5.15243e-05
0.00135999
0.00189319
0.00262532
0.00945611
0.000664958
1.15796e-05
1.50322e-05
6.5438e-08
7.51488e-08
0.00128554
0.0116864
3.10477e-06
0.155174
0
0.0258775
0.0260389
7.13815e-05
3.79194e-08
0.0753944
6.88608e-08
2.93698e-05
0.0251567
0.0229515
7.88316e-10
3.04953e-06
4.58583e-08
8.62673e-05
4.04881e-05
0.129882
0.123581
1.42185e-06
0
5.54226e-05
2.78695e-08
0.0299773
0.0347454
1.52036e-08
0.00195001
0.000771123
0.00349471
0.00102389
0.000704469
0.0243624
0.000851431
0.0226653
0.021018
0.00198761
0.00725109
0.156158
9.22304e-05
4.82465e-05
0.000107204
0.00184717
0.000176256
0.000128613
3.00676e-08
0.0419717
2.43728e-08
0.047267
0.0361581
0.000642763
2.36286e-08
1.5269e-08
1.19776e-10
1.42162e-08
0.00464371
3.50345e-09
6.59718e-09
3.46511e-09
0.019446
0.0135382
0.0214771
2.7677e-08
0.00259913
1.67387e-08
5.28938e-07
0.204009
2.14118e-07
0.0888219
0.00150858
0.000104869
0.000463641
4.32293e-05
0.000366147
0.000356984
4.61467e-05
0.000303315
0.000765476
6.74837e-09
0.00107805
1.04974e-05
4.544e-06
3.24918e-06
0.00583119
0.00721224
0.00890038
0
0
6.22588e-07
6.92558e-05
0.00106459
0.00161963
0
0.0288104
0.0323586
0.0331098
0.00140075
0.000874777
3.63682e-05
0.00121192
0.00676257
2.79082e-08
2.16067e-08
0.00412298
0.000180652
3.43645e-10
0.000148003
0.00041221
1.69835e-07
0.00294466
0.032531
0.00292407
0.00189252
0.0292871
6.04946e-05
0.0532525
4.25198e-09
0.00560206
3.77098e-05
1.52026e-09
3.1846e-09
0.0210032
2.40296e-09
0.0122374
2.24693e-05
1.39674e-06
0.000392789
1.65456e-05
1.76111e-05
1.23319e-05
8.05763e-08
1.08232e-07
9.87707e-08
1.37276e-05
0.0137647
2.05831e-05
2.15646e-05
0.00437532
0.00298494
1.4735e-07
7.27751e-08
1.16369e-07
0.00078368
0.00115426
0.00161304
0.00106035
0.00779891
0.0455506
0
2.33386e-08
5.52847e-10
0.00252314
0.0021522
0.00715924
0.00495891
0.000127386
0.00807053
2.16476e-05
0.00203626
0.001738
0.00992066
0.0114293
1.84842e-06
3.2412e-06
0.0119559
0.0472558
3.34535e-06
2.23186e-06
1.7902e-06
1.76003e-06
0.00699042
2.44531e-09
0.00702044
0
0.146612
2.5028e-06
1.83234e-06
0.0105846
0.155782
0.0136463
0.010047
2.07127e-05
0.0159507
3.22112e-05
0.00250738
0.00292328
0.00239347
0.0810723
0.0566581
2.98381e-06
1.56382e-06
0.0209074
0.0238743
0.0225162
0.000845958
0.000838253
0.000178526
0.0130863
6.51484e-05
0.00268692
3.41595e-05
0.0234161
0.000371093
0.00882042
1.3161e-10
2.30471e-08
3.85636e-10
9.83113e-05
1.01349e-07
1.58721e-05
0.118027
0.13513
0.000211936
0.143282
2.54901e-05
1.05347e-10
0.158484
2.04841e-05
0
0.000107407
1.04189e-06
0.000933605
2.26511e-06
5.32136e-08
0.00022018
2.51948e-07
0.0756327
0.0720013
2.54097e-07
0.0782923
7.06188e-09
3.75068e-05
0.00191575
0.199651
6.42249e-10
6.66886e-06
0.0157813
0.0132735
0.0119049
0.0307428
3.91851e-05
0.0824345
0.0755026
0.00118539
8.996e-08
9.44142e-07
4.25244e-07
0.0222057
0.0459242
6.11155e-07
0.0406403
0.0248951
0.0352113
0.0114436
0.162447
0.00663218
0.0031525
0.00922165
0.00280816
0.00559872
0.00430652
0.00535742
0.00154793
0.00535654
0.00093003
0.195896
2.00399e-09
0.207919
1.39384e-09
4.81187e-07
4.34417e-07
0.00106564
0.00973052
5.54579e-07
3.66514e-07
1.0366e-09
1.68831e-08
0.256859
0.242155
2.48606e-10
7.06018e-07
8.0202e-08
1.32211e-07
1.07951e-07
0.0281001
0.000153385
3.21745e-05
0.000368045
0.000103413
1.05452e-08
1.0413e-08
7.28219e-09
0.0177014
0.018443
0.0236966
0.223622
0.00354673
1.59046e-06
0.00102654
4.08363e-07
6.7353e-06
6.13388e-06
0.00504482
0.220386
4.64111e-05
0.0286352
2.50504e-05
0.0150523
9.05041e-10
5.94797e-06
8.16155e-05
0.0130778
0.0677412
0.000212615
0.00221314
0.000176371
0.00755897
0.0556233
0.00657414
0.190753
0.000340592
2.83438e-06
1.28556e-06
0.221971
4.09296e-06
1.6749e-06
1.71358e-05
4.11696e-05
0.000535272
3.30797e-07
7.99164e-08
0.243127
1.08684e-05
4.9485e-05
0.00238601
0.000112297
0.00150443
0.230932
0.000141369
0.0544856
1.27696e-05
2.44996e-05
5.53665e-10
4.77237e-05
5.55206e-05
5.93417e-09
0.157165
4.25366e-05
9.90914e-08
3.13205e-05
5.68665e-05
0.182579
0.0691931
0.210942
1.47833e-08
0.00602512
0.0238645
0.0214585
4.65781e-09
0.0218637
8.39869e-05
0.00174883
0.00430058
0.00162712
0.00137481
2.23728e-05
0.00148991
0.000937973
0.00038836
2.70169e-09
4.8853e-06
0.0122313
0.00984474
0.0165699
0.0106507
0.0178372
0.000211308
0.0232212
0.000168766
0.000151425
0.00978895
0.00673167
2.80391e-06
0.00160157
0.00137997
0.00233517
0.00836626
0.00193966
0.00243667
0.00204872
0.000203131
1.03547e-06
9.01185e-06
0.00423692
0.018843
0.0137019
1.46521e-10
0.00107599
0.000877559
1.20746e-05
7.36839e-10
4.41644e-05
0.0107488
3.17154e-06
0.129909
4.35204e-08
3.66608e-06
0.12284
0.000627369
0.0177202
6.43604e-10
0.0143772
4.20471e-09
0.0975923
1.58643e-08
6.38073e-09
0.0350233
0.0308369
0.0240794
0.00270714
0.00193704
0.00225487
1.64416e-06
0.0582734
2.28988e-06
0.114437
9.0217e-05
4.76578e-07
0.000568042
1.62527e-08
0.0208477
0.000667248
0.000502203
6.91754e-05
0.0531807
2.43416e-05
1.71586e-05
0.000255611
0.00159546
0.00126301
0.00106085
0.00104004
1.11352e-07
0.000635536
0.00230743
1.75872e-05
0.000421331
0.000361746
0.0193494
0.00145282
0.000303879
0.0167672
0.00117087
0.000414166
0.000140291
0.00022865
3.74484e-06
0.0208384
1.17036e-07
0.000844864
0.0178925
0.0142905
0.0010227
0.000383381
2.46238e-09
0.000531087
0.000730333
2.17304e-05
0.000548996
3.88642e-05
0.000441035
0.000698983
0.000599446
0.000318642
0.000104516
8.52178e-05
3.74515e-06
0.151556
2.68891e-09
0.0225317
2.5661e-06
0.0168974
0.0175892
2.54276e-07
0.051711
0.0470636
0.068272
0.0514291
0.0674847
0.00166765
0.000461376
0.000170887
0.00172305
0.000382977
0.000137916
0.000595866
0.0157132
0.00867877
0.00149029
0.0156294
0.0171577
0.0134003
0.00735036
2.05574e-06
0.0184115
0.00127344
0.000591056
0.181622
0.000196518
0.000297386
6.41066e-09
0.0261459
0.0624303
0.066016
0.00018246
0.000273689
1.53941e-06
0.00012118
0.244148
0.00298476
9.11459e-05
0.000896789
0.000552901
3.25115e-08
5.06986e-05
0.000960211
1.07033e-06
0.00238225
0.243695
0.0342757
0.000595221
0.0177668
0.00077004
0.000523245
2.08631e-05
0.000374756
0.0304379
1.58843e-10
0.000432585
4.67794e-10
0.213682
2.93274e-08
2.07321e-08
1.35459e-08
0.000263876
0.000300498
0.000333838
0.0224253
2.50771e-06
0.019176
0.000648906
3.95051e-06
0.000409336
7.53282e-06
6.75429e-06
0.000538722
0
0.000681643
0.000413911
5.94749e-06
9.06266e-06
0.000507747
0.000745703
3.16559e-06
3.53332e-06
3.01708e-06
5.94393e-07
0.103193
3.13997e-07
0.0141451
0.246785
0.240715
1.08232e-07
1.83161e-07
0.124393
1.16665e-05
0.000135299
0.00925118
1.37584e-07
3.39765e-05
5.20388e-05
7.29755e-08
0.00126763
0.00632926
0.00712433
3.79145e-05
2.11526e-07
0.162369
3.79666e-05
0.141452
0.231536
0.100389
0.0115979
0.0943525
0.0926632
0.000371107
0.000223798
2.97573e-05
0.000475279
0.000342015
2.11165e-09
4.00187e-09
2.17558e-09
0.00441065
1.19396e-07
0.00155114
7.93442e-08
0.000147784
0.216401
0.204984
0.189375
0.000130299
0.000129992
9.61159e-05
0.0976037
4.1999e-09
0.158744
0.00496758
0.000968735
0.00620138
3.37764e-05
0
0.00464727
0.00369234
0.000140309
0.0685758
0.00407803
0.00241488
0.0958253
0.0152057
9.43173e-06
0.000851668
0.0012089
5.65672e-08
0.0395879
0.0520519
0.0465568
0.0314099
0.0258515
0.0225667
4.22991e-05
3.66196e-05
1.02372e-05
6.69874e-06
5.00713e-06
0.0174281
0.0202881
1.42026e-05
1.1684e-05
0.00326202
0.0164809
1.45726e-05
7.80407e-06
0.0447803
0.0390348
0.0365275
4.83197e-05
3.99076e-05
0.0178188
2.69393e-05
0.0585952
0.0643247
0.0576902
0.000153984
0.00012845
8.8459e-05
0.0081767
0.0053902
0.230427
0.0003843
0.000461504
0.00027123
5.95964e-07
0.000377035
0.000209839
0.0002207
0.00308212
0.0653701
0.123509
0.055434
0.156779
0.00118494
0.00039498
0.000353564
0.000253746
0.000311697
0.000665429
0.000403585
0.000459954
0.000147509
0.000120751
4.44152e-07
9.68773e-07
0.00148247
2.94877e-05
5.84792e-05
0.000329104
6.52218e-05
1.44549e-10
0.000187906
0.00654583
0.0641605
0.0547218
0.0562528
0.18661
0.178068
0.171337
0.00518823
8.88012e-06
0.00586298
0.00439991
0.0988442
0.0888283
0.071346
0.0961839
1.41642e-07
1.3655e-08
5.30844e-07
0.129632
0.118343
1.37058e-06
0.00691399
0.00521491
0.000219475
0.0441256
0.0113957
6.00934e-08
0.0654606
0.00895368
3.33029e-05
3.16719e-05
2.79768e-05
7.24561e-06
0.000119169
1.94327e-05
0.0192557
0.123762
5.70726e-05
0.0252123
0.0919408
0.0345623
0.0198
0.102006
2.74481e-07
0.0673988
0.000254165
0.0572441
0.0558498
0.024359
0.146005
0.00648942
0.00389886
1.54613e-05
3.45963e-06
3.74848e-08
0.000170565
8.76611e-05
2.17375e-08
5.60048e-05
0.0343382
6.74002e-08
0.00325584
1.27178e-07
0.00289142
0.016637
0.0147185
0.0169166
0.141602
0.135302
9.95137e-09
0.000135891
0.000173166
0.00398809
0.084186
0.0705612
3.07699e-09
0.0023317
5.93093e-06
7.91739e-05
0.0021325
0.0081188
0.00157096
0
0.17115
0.00870158
0.00697678
0.17929
0.0073187
0.000138998
0.0336938
0.185547
0.0998223
0.00552186
0.00198804
0.0041535
0
0.000623232
5.12948e-07
3.01826e-07
0.00723336
0.0103135
0.000828892
0.00264282
0.0118177
0.00189114
1.76386e-09
3.36552e-09
1.41356e-09
0.0226231
0.00119278
2.52709e-08
0.0174739
9.05977e-10
0.0238402
0.00149663
0.00114228
3.56568e-10
0.00391893
0.0096048
0.00756354
0.00738072
8.1419e-10
3.39224e-10
0.185121
0.164872
0.187662
9.78722e-06
0.0304451
7.40415e-08
2.46341e-08
0.0460775
0.03738
0.124794
0.036935
1.31533e-05
4.13181e-05
4.83004e-08
0.00924092
4.1288e-06
0.00977909
0.00646294
0.0760043
0.0193379
0.0103424
0.0792815
7.10712e-05
4.72618e-05
1.40654e-08
0.0048587
0.000532097
0.00596462
0.00633264
0.0122612
5.38803e-08
0.000261348
0.00780445
0.0038056
0.0009335
0.000476961
0.0109523
0.000320694
0.000353323
7.66608e-07
1.28697e-06
0.0110067
0.0107453
0.00882494
0.0147585
0.0341431
0.0173379
0.0217608
0.0126209
0.0196046
0.00898203
0.000440479
0.0147163
0.00321595
0.0131356
4.50139e-06
1.55749e-08
0.000338231
2.18597e-05
0.000363722
0.00490256
0.00870431
0.00145202
0.0408642
0.0598843
0.0486739
1.76743e-06
8.64102e-07
0.00162461
3.20197e-06
2.40294e-06
0
1.98074e-08
1.07364e-05
7.90552e-09
4.9451e-08
0.109926
0.0106726
0
3.10367e-10
4.97217e-05
0.000451693
0
0.0294919
0.000112328
2.70654e-07
8.77026e-10
3.69177e-07
1.5718e-07
0.00220928
3.39115e-07
2.21833e-10
0.0162603
0.000119024
4.07785e-05
0.00854597
0.000191474
0.000183156
0.00227656
2.4946e-05
0.04438
1.37838e-08
0.108006
0.00193202
0.0193802
0.0142286
0.00237722
7.65289e-07
0.0383346
3.5473e-09
0.0038355
0.0166571
0.000255509
9.06858e-07
0.00413371
4.83724e-07
0.00249251
0.0422264
1.56249e-05
4.54564e-07
1.23735e-09
8.0073e-05
0.0052861
0.0440266
0.167929
2.17865e-09
0.0239163
0.0825462
0.14672
0.0926104
0.0145489
3.94925e-05
0.00209432
0.0531841
0.0331831
0.11238
5.22465e-06
3.6839e-06
3.09006e-09
3.76811e-06
4.0767e-07
2.42338e-06
2.73068e-05
9.48215e-07
0.136947
0.116032
0.0259339
1.04946e-08
0.00257351
0.000965061
0.0508461
0.0178019
1.04396e-05
1.36011e-06
9.85465e-05
0.0456789
0
1.875e-08
1.12628e-08
0.0129024
3.4568e-08
0.103092
2.21899e-08
2.59136e-05
6.71056e-06
0.0063163
0.0136788
0.00105654
1.76175e-10
0.024075
5.13178e-09
5.20614e-07
0.000772686
0.00729759
6.64996e-05
0.0107583
0.0541031
0.1355
0.00256966
7.00033e-09
0.00110912
0.00737167
0.00103621
0.000856283
0.00828786
6.48153e-05
4.64882e-09
3.04401e-07
0
0.000132913
9.96042e-09
0
0.05548
7.04654e-05
0.00251379
1.51584e-08
0
1.01125e-08
0
0.00349492
0.192215
8.4008e-05
1.2001e-08
0.000721118
4.31747e-06
5.89473e-09
0.152695
0.00171505
0.000623916
0
0.000236914
0.00100902
0.206135
0.00105589
0.0104573
1.29607e-05
0.000606115
0.00464659
0.000285986
0.00377648
0.00211234
0.00144418
0.0066572
5.1722e-05
0.229829
0.000675594
3.62015e-09
0.0424311
2.19229e-07
0.00538485
0.000777424
4.75847e-09
0.0139113
2.09063e-09
0.235875
0.0174588
0.00163841
1.04128e-05
0.0997535
2.68758e-05
0.248952
0.000143059
0.000166872
0.00456495
3.94483e-06
0.00716999
5.35793e-06
0.0851583
5.74413e-05
8.05759e-08
0.226185
0.162299
0.00370032
0.0100287
0.000758153
0.0115961
9.80893e-06
0.0508707
2.60079e-05
6.39626e-06
3.79113e-08
3.56504e-05
0.000478615
1.55096e-06
6.67456e-08
6.36269e-06
9.8224e-05
0.0025174
0.0284376
0.0272499
0.00531514
7.47544e-05
0.000259106
0.00425876
1.94092e-06
0.00697537
8.70331e-05
0.000122216
0.0968989
0.0311518
0.00710767
0.0636158
0.152099
0.000353446
0.0416943
0.0954569
0.00756215
1.01863e-06
0.144097
0.0338291
0.000187172
0.0318581
5.85864e-09
0.109151
0.000171012
1.70211e-07
0.0335058
7.74833e-05
6.7806e-07
1.45294e-07
2.25496e-08
0.0127748
0.000151709
0.000108384
0.000653668
0.0271939
0.0267839
0.0273193
1.75746e-10
0.000272338
0.0317603
0.058295
0.00341375
0.0406616
2.44098e-08
0.0493325
1.04156e-07
9.90255e-09
0.0365971
0
1.57777e-06
0.0384474
0.000322419
0.0501887
2.16789e-10
0.0401344
2.8317e-08
1.71616e-10
0.0587254
5.05308e-09
5.21038e-09
0.0098179
0.00500001
0.178237
2.26789e-05
9.74163e-07
0.000264798
0.00167965
0.00381961
0.000770194
2.21078e-07
0.000164288
0.00263272
0.00428146
6.23448e-05
0.000631308
0.112495
0.00142277
0.00126114
3.15565e-05
7.26188e-06
0.0056109
1.18718e-08
0.132344
0.00334829
0.000473462
5.87948e-08
0.0640054
0.000746641
0.0148884
0.108546
0.138847
5.01205e-05
0.00669094
7.48743e-05
0.0905414
0.120676
6.32413e-05
0.00193479
0.00556582
7.54028e-08
0.000699015
0.000822098
8.66704e-10
0.0207809
1.63882e-10
5.18575e-08
0.0279222
0
0.000166385
1.386e-08
0.00796068
0.1052
4.21976e-07
0.000335671
0.000813089
0.00884699
3.81196e-05
1.3945e-05
0.00472977
1.24411e-05
7.3411e-07
2.05879e-08
0.00368898
0.019199
0.258382
3.56501e-09
1.10132e-09
0.0826341
1.07061e-07
4.79899e-10
0.0315368
2.81668e-06
0.000557323
4.63353e-06
1.11508e-07
0.227238
0.104079
1.02155e-07
8.54144e-09
0.12599
4.63548e-10
7.55833e-10
3.1968e-09
3.17241e-09
2.95243e-05
9.28462e-08
7.45091e-10
0.00301627
0.0395172
0.0409303
0.00632071
8.87821e-08
3.08635e-09
0.049085
0.0482721
0.057915
0.0136075
0.00983907
0.0603791
6.4598e-07
6.04174e-05
0.000392029
3.83133e-05
5.25686e-06
2.14994e-06
2.25328e-05
0.000515381
0.0696664
0.0394917
0.0430686
1.84869e-06
0.000361842
3.25772e-06
5.40062e-05
4.09023e-07
0.01914
0.000265867
7.03344e-08
0.00471712
0.000720294
0.00789167
0.033455
1.56366e-07
0.000233688
0.00499695
0
0.00280802
7.64496e-07
0.00018992
1.22369e-09
0.00168129
0.000507783
0.00322634
0.000131112
0.000224151
0.00251644
1.83168e-10
0.0435692
0.0859901
1.20732e-08
0.248495
8.83834e-10
3.24429e-05
0.0428443
0.0186878
0.038959
6.89998e-05
5.47972e-05
0.0385708
0.00132592
0.0216207
0.00673943
1.45309e-10
0
0.00128791
0.158334
0.0194613
0.0162508
0.181066
0.00110804
0.0162642
1.41673e-08
2.1617e-06
1.50169e-05
0.00813619
1.43538e-10
0.000289051
0.0134522
1.10956e-07
0.0014276
0.0244869
0.000315298
2.57535e-05
2.35182e-07
5.75304e-10
0.00867605
0.0308805
3.34593e-05
0.0486048
1.21083e-09
5.52324e-06
0.000228387
0.00065311
1.05371e-08
0.00329359
0.00533706
0.000186273
0.045369
1.5371e-05
3.11733e-07
1.8475e-09
0.00612911
8.26453e-08
0.00026776
0.000402722
0.000402585
5.21542e-05
0.0734281
1.32897e-08
2.20535e-07
6.8809e-05
0
0.000194605
0.00043455
0.000388168
0.000433703
3.06844e-06
3.51272e-05
0.158652
0.0283085
0.00116193
1.49404e-09
0.000289509
9.74862e-05
0.0216636
2.64556e-05
5.47649e-06
5.07549e-05
0.0415693
0.134832
1.02655e-08
0.0605114
0.0430528
1.1101e-09
6.07284e-06
0.00117618
0.00159121
0
0.000232368
0.0258221
0.000334127
4.33306e-05
1.32784e-08
9.81097e-05
2.43518e-07
0.00113056
0.0516059
3.90688e-05
3.79434e-05
0.0260494
2.15901e-05
9.44523e-08
0.11091
0.0221661
0.021107
0.133232
1.87642e-05
1.37108e-06
0.203999
0.178213
0.000653589
3.03415e-08
1.29312e-07
0.000322973
8.50457e-05
0.044938
0.000172341
1.42151e-07
0.0113227
5.29616e-08
0.00165367
0.011509
7.98221e-09
0.00779893
0.00148225
0.135829
0.139823
0.00215885
0.209535
1.05331e-10
2.55059e-05
5.82811e-06
2.49557e-05
0.02925
2.2421e-09
0.147183
0.00207419
0.00103407
1.04882e-06
2.69922e-07
0.00188132
0.00108858
0.176942
3.35102e-09
2.48417e-08
7.80099e-08
0.0179675
0
2.59901e-07
0.0397369
0.000713323
0.0352051
0.0372732
0.000193529
0.000103225
1.43628e-08
0.000821091
0.0110634
6.91131e-06
0.000536896
2.43146e-08
0.0908564
4.48208e-06
0.0496177
0.0244961
0.040079
0.112096
0.000189115
0.000270462
3.98298e-05
0.00015946
0.212388
1.94143e-05
0.0123952
1.06619e-07
8.00196e-07
0.0808478
4.99212e-09
1.373e-08
2.04377e-07
0.000278145
0.0378633
0.0113101
0.000259203
0.00600943
0.0518452
0.000435159
0.0293165
0.0294062
0.00109474
5.24412e-08
0.00338486
0.0569813
0.0148954
0.000266035
0
4.34182e-08
9.9212e-06
0.000121811
0.0285894
1.93364e-07
5.72864e-05
7.65667e-07
0.0050824
0.00692507
1.53009e-05
3.5943e-09
0.0557622
5.05978e-05
2.3065e-09
0
0.00632316
0.0542014
4.12285e-05
8.01483e-08
6.60108e-05
5.40051e-05
0.00023366
8.29904e-05
0.000574369
0.0781962
0.0311506
6.42329e-06
0.0130954
4.75448e-08
0.000916275
0.00458929
0
0.00159302
0
7.07519e-09
0.0721884
0.000674719
0.0221396
8.2074e-10
1.0724e-06
0.00245054
0.015141
0.0111111
1.13093e-05
1.9889e-05
2.03603e-05
0.0679227
0.0307664
7.44515e-09
0.0388136
0.0429499
2.69214e-05
0.00186812
7.39516e-05
3.02834e-05
0.00255849
1.95789e-07
0.0636331
3.0545e-06
0.000141745
0.000224472
4.92257e-06
3.21102e-06
1.42255e-05
0.000272101
1.03444e-07
7.62676e-06
0.0146643
0.0638363
3.18884e-08
2.49728e-05
0.0274208
0.179876
4.46551e-06
0.00188306
0.0148052
0.000122173
0.252874
0.0159307
0.00084983
0.204169
0.014867
0.198786
0.00759011
0.000274745
2.30391e-05
0.00141405
0.00273948
0.0524937
0.0508047
0.00421023
2.35685e-05
2.47833e-08
0.000645741
0.16517
0.0348137
1.68457e-06
7.95651e-06
0.000108139
8.21801e-07
1.96426e-06
0.0555849
0.00912089
1.10695e-09
0.0284586
0.00208128
1.11596e-05
0.0084148
0.000289055
0.000231938
8.26964e-06
7.71598e-07
0.012125
0.00553698
1.11625e-05
0.00885343
0.0079993
0.0162215
0.000555078
0.00811003
0.000208587
0.00023838
0
0.000784855
0.000564259
3.15946e-07
7.16419e-08
0.0150004
5.97476e-05
2.21072e-07
2.6138e-08
0.000631297
0.00156918
5.10992e-05
0.192022
0.0275305
4.74681e-10
0.223583
0.00169436
0.000866316
1.38989e-07
4.91066e-07
0.000207504
0.00343838
0.0403719
0.0350311
0.00448009
3.82827e-06
0.0170671
0.201529
6.40544e-08
5.05984e-08
0.00117411
0.00104109
0.000150143
5.20874e-08
0.0400901
0.000591939
0.000116951
2.57392e-08
1.35391e-05
0
7.64898e-06
1.52105e-08
7.78278e-07
0.00583227
0.0154178
0.0317904
0.102067
0.152437
0.0163778
4.98734e-06
1.66049e-07
0.139256
4.91504e-06
1.75549e-06
3.424e-09
0.0187426
7.46423e-07
0.00188739
0.00070583
0
0
0.0240889
0.000250288
0
0.00063995
0.000526712
9.50874e-05
0.0330132
0.00821837
1.33534e-10
0.0986298
0.0244514
0.0338639
1.40012e-06
0.00824502
0.00071803
0.0014691
2.13747e-10
2.0339e-10
0.0245837
0.00340903
0.00273054
0.000770908
0.00318359
4.52154e-10
4.91565e-09
2.19953e-09
0.0101172
3.18309e-09
0.00313394
0.0129243
0.211682
1.94254e-09
1.03842e-09
0.000420527
3.20815e-08
0.00105085
0.000106432
0.000700029
1.47248e-05
0.16188
0.000431073
0.157292
0.000455211
0.153369
7.00522e-07
0.000227472
0.000760459
0.175658
0.000253998
0.00244908
0.00681415
6.37577e-05
0.00140701
0.00784662
0.000107761
0.00231208
3.54442e-08
0.00613778
5.93094e-06
0.000141319
1.72178e-05
2.13629e-06
0.000452691
6.87976e-09
1.29913e-07
0.114898
0.114138
2.5214e-05
2.11402e-08
0.000791241
0.00368543
0.0396613
0.109468
0.218914
1.02851e-08
2.18207e-08
9.57735e-08
7.83219e-08
0.000526177
9.91078e-09
0.00556721
0.000162063
1.10009e-05
1.679e-05
0.000233435
8.70155e-05
0.000123876
0.000117046
0.000180305
0.0631759
5.51994e-05
0.0490381
0.0472466