# vtk DataFile Version 2.0
Unstructured Grid by M++
ASCII
DATASET UNSTRUCTURED_GRID
POINTS 4072 float
  0.609375   0.843750 0
  0.562500   0.843750 0
  0.531250   0.843750 0
  0.875000   0.828125 0
  0.984375   0.828125 0
  0.953125   0.828125 0
  0.937500   0.828125 0
  0.843750   0.828125 0
  0.812500   0.828125 0
  0.781250   0.828125 0
  0.765625   0.828125 0
  0.734375   0.828125 0
  0.703125   0.828125 0
  0.671875   0.828125 0
  0.640625   0.828125 0
  0.609375   0.828125 0
  0.593750   0.828125 0
  0.562500   0.828125 0
  0.546875   0.828125 0
  0.531250   0.828125 0
  0.515625   0.828125 0
  0.968750   0.812500 0
  0.937500   0.812500 0
  0.921875   0.812500 0
  0.890625   0.812500 0
  0.859375   0.812500 0
  0.828125   0.812500 0
  0.796875   0.812500 0
  0.765625   0.812500 0
  0.750000   0.812500 0
  0.718750   0.812500 0
  0.687500   0.812500 0
  0.656250   0.812500 0
  0.625000   0.812500 0
  0.593750   0.812500 0
  0.578125   0.812500 0
  0.546875   0.812500 0
  0.531250   0.812500 0
  0.515625   0.812500 0
  0.984375   0.796875 0
  0.562500   0.015625 0
  0.953125   0.796875 0
  0.921875   0.796875 0
  0.906250   0.796875 0
  0.875000   0.796875 0
  0.843750   0.796875 0
  0.812500   0.796875 0
  0.781250   0.796875 0
  0.750000   0.796875 0
  0.734375   0.796875 0
  0.703125   0.796875 0
  0.671875   0.796875 0
  0.640625   0.796875 0
  0.609375   0.796875 0
  0.578125   0.796875 0
  0.562500   0.796875 0
  0.531250   0.796875 0
  0.515625   0.796875 0
  0.968750   0.781250 0
  0.546875   0.000000 0
  0.937500   0.781250 0
  0.906250   0.781250 0
  0.890625   0.781250 0
  0.859375   0.781250 0
  0.828125   0.781250 0
  0.796875   0.781250 0
  0.765625   0.781250 0
  0.734375   0.781250 0
  0.718750   0.781250 0
  0.687500   0.781250 0
  0.656250   0.781250 0
  0.625000   0.781250 0
  0.593750   0.781250 0
  0.562500   0.781250 0
  0.546875   0.781250 0
  0.515625   0.781250 0
  0.984375   0.765625 0
  0.953125   0.765625 0
  0.921875   0.765625 0
  0.890625   0.765625 0
  0.875000   0.765625 0
  0.843750   0.765625 0
  0.812500   0.765625 0
  0.781250   0.765625 0
  0.750000   0.765625 0
  0.718750   0.765625 0
  0.703125   0.765625 0
  0.671875   0.765625 0
  0.640625   0.765625 0
  0.609375   0.765625 0
  0.578125   0.765625 0
  0.593750   0.750000 0
  0.562500   0.765625 0
  0.546875   0.765625 0
  0.531250   0.765625 0
  0.562500   0.750000 0
  0.968750   0.750000 0
  0.937500   0.750000 0
  0.906250   0.750000 0
  0.875000   0.750000 0
  0.859375   0.750000 0
  0.828125   0.750000 0
  0.796875   0.750000 0
  0.765625   0.750000 0
  0.734375   0.750000 0
  0.703125   0.750000 0
  0.687500   0.750000 0
  0.671875   0.750000 0
  0.656250   0.750000 0
  0.625000   0.750000 0
  0.546875   0.750000 0
  0.531250   0.750000 0
  0.515625   0.750000 0
  0.562500   0.734375 0
  0.984375   0.734375 0
  0.953125   0.734375 0
  0.921875   0.734375 0
  0.890625   0.734375 0
  0.859375   0.734375 0
  0.843750   0.734375 0
  0.812500   0.734375 0
  0.781250   0.734375 0
  0.750000   0.734375 0
  0.718750   0.734375 0
  0.687500   0.734375 0
  0.671875   0.734375 0
  0.656250   0.734375 0
  0.640625   0.734375 0
  0.546875   0.734375 0
  0.531250   0.734375 0
  0.515625   0.734375 0
  0.562500   0.718750 0
  0.968750   0.718750 0
  0.937500   0.718750 0
  0.906250   0.718750 0
  0.875000   0.718750 0
  0.843750   0.718750 0
  0.796875   0.718750 0
  0.765625   0.718750 0
  0.734375   0.718750 0
  0.703125   0.718750 0
  0.687500   0.718750 0
  0.671875   0.718750 0
  0.656250   0.718750 0
  0.625000   0.718750 0
  0.546875   0.718750 0
  0.531250   0.718750 0
  0.515625   0.718750 0
  0.562500   0.703125 0
  0.953125   0.703125 0
  0.921875   0.703125 0
  0.890625   0.703125 0
  0.859375   0.703125 0
  0.828125   0.703125 0
  0.781250   0.703125 0
  0.750000   0.703125 0
  0.718750   0.703125 0
  0.687500   0.703125 0
  0.656250   0.703125 0
  0.546875   0.703125 0
  0.531250   0.703125 0
  0.515625   0.703125 0
  0.984375   0.687500 0
  0.937500   0.687500 0
  0.921875   0.687500 0
  0.906250   0.687500 0
  0.875000   0.687500 0
  0.843750   0.687500 0
  0.812500   0.687500 0
  0.765625   0.687500 0
  0.734375   0.687500 0
  0.703125   0.687500 0
  0.671875   0.687500 0
  0.640625   0.687500 0
  0.593750   0.687500 0
  0.562500   0.687500 0
  0.546875   0.687500 0
  0.531250   0.687500 0
  0.515625   0.687500 0
  0.968750   0.671875 0
  0.937500   0.671875 0
  0.921875   0.671875 0
  0.906250   0.671875 0
  0.890625   0.671875 0
  0.859375   0.671875 0
  0.828125   0.671875 0
  0.796875   0.671875 0
  0.765625   0.671875 0
  0.750000   0.671875 0
  0.718750   0.671875 0
  0.687500   0.671875 0
  0.656250   0.671875 0
  0.625000   0.671875 0
  0.593750   0.671875 0
  0.578125   0.671875 0
  0.546875   0.671875 0
  0.531250   0.671875 0
  0.515625   0.671875 0
  0.984375   0.656250 0
  0.953125   0.656250 0
  0.937500   0.656250 0
  0.921875   0.656250 0
  0.906250   0.656250 0
  0.875000   0.656250 0
  0.843750   0.656250 0
  0.812500   0.656250 0
  0.781250   0.656250 0
  0.750000   0.656250 0
  0.734375   0.656250 0
  0.703125   0.656250 0
  0.671875   0.656250 0
  0.640625   0.656250 0
  0.609375   0.656250 0
  0.578125   0.656250 0
  0.562500   0.656250 0
  0.531250   0.656250 0
  0.515625   0.656250 0
  0.968750   0.640625 0
  0.937500   0.640625 0
  0.906250   0.640625 0
  0.890625   0.640625 0
  0.859375   0.640625 0
  0.828125   0.640625 0
  0.796875   0.640625 0
  0.765625   0.640625 0
  0.734375   0.640625 0
  0.718750   0.640625 0
  0.687500   0.640625 0
  0.656250   0.640625 0
  0.625000   0.640625 0
  0.593750   0.640625 0
  0.562500   0.640625 0
  0.546875   0.640625 0
  0.515625   0.640625 0
  0.984375   0.625000 0
  0.953125   0.625000 0
  0.921875   0.625000 0
  0.890625   0.625000 0
  0.875000   0.625000 0
  0.843750   0.625000 0
  0.812500   0.625000 0
  0.781250   0.625000 0
  0.750000   0.625000 0
  0.734375   0.625000 0
  0.718750   0.625000 0
  0.703125   0.625000 0
  0.671875   0.625000 0
  0.640625   0.625000 0
  0.609375   0.625000 0
  0.578125   0.625000 0
  0.562500   0.625000 0
  0.546875   0.625000 0
  0.531250   0.625000 0
  0.968750   0.609375 0
  0.937500   0.609375 0
  0.906250   0.609375 0
  0.875000   0.609375 0
  0.859375   0.609375 0
  0.828125   0.609375 0
  0.796875   0.609375 0
  0.765625   0.609375 0
  0.750000   0.609375 0
  0.734375   0.609375 0
  0.718750   0.609375 0
  0.703125   0.609375 0
  0.687500   0.609375 0
  0.656250   0.609375 0
  0.625000   0.609375 0
  0.593750   0.609375 0
  0.562500   0.609375 0
  0.546875   0.609375 0
  0.531250   0.609375 0
  0.515625   0.609375 0
  0.984375   0.593750 0
  0.953125   0.593750 0
  0.921875   0.593750 0
  0.890625   0.593750 0
  0.859375   0.593750 0
  0.843750   0.593750 0
  0.812500   0.593750 0
  0.781250   0.593750 0
  0.750000   0.593750 0
  0.734375   0.593750 0
  0.718750   0.593750 0
  0.687500   0.593750 0
  0.671875   0.593750 0
  0.640625   0.593750 0
  0.609375   0.593750 0
  0.578125   0.593750 0
  0.562500   0.593750 0
  0.546875   0.593750 0
  0.531250   0.593750 0
  0.515625   0.593750 0
  0.968750   0.578125 0
  0.937500   0.578125 0
  0.906250   0.578125 0
  0.875000   0.578125 0
  0.890625   0.562500 0
  0.843750   0.578125 0
  0.828125   0.578125 0
  0.796875   0.578125 0
  0.765625   0.578125 0
  0.734375   0.578125 0
  0.703125   0.578125 0
  0.671875   0.578125 0
  0.656250   0.578125 0
  0.656250   0.562500 0
  0.625000   0.578125 0
  0.640625   0.562500 0
  0.593750   0.578125 0
  0.562500   0.578125 0
  0.546875   0.578125 0
  0.531250   0.578125 0
  0.515625   0.578125 0
  0.859375   0.562500 0
  0.828125   0.562500 0
  0.781250   0.562500 0
  0.750000   0.562500 0
  0.718750   0.562500 0
  0.687500   0.562500 0
  0.609375   0.562500 0
  0.578125   0.562500 0
  0.562500   0.562500 0
  0.546875   0.562500 0
  0.531250   0.562500 0
  0.515625   0.562500 0
  1.000000   0.812500 0
  0.578125   0.031250 0
  0.875000   0.546875 0
  0.625000   0.546875 0
  0.218750   0.000000 0
  0.640625   0.781250 0
  0.828125   0.093750 0
  0.031250   0.531250 0
  0.296875   0.328125 0
  0.296875   0.312500 0
  0.281250   0.312500 0
  0.765625   0.312500 0
  0.031250   0.859375 0
  0.093750   0.265625 0
  0.109375   0.250000 0
  0.187500   0.671875 0
  0.421875   0.640625 0
  0.031250   0.062500 0
  0.140625   0.125000 0
  0.562500   0.906250 0
  0.125000   0.437500 0
  0.203125   0.937500 0
  0.125000   0.421875 0
  0.140625   0.406250 0
  0.093750   0.437500 0
  0.109375   0.421875 0
  0.093750   0.421875 0
  0.109375   0.406250 0
  0.328125   0.125000 0
  0.750000   0.906250 0
  0.328125   0.109375 0
  0.750000   0.890625 0
  0.312500   0.125000 0
  0.734375   0.906250 0
  0.281250   0.343750 0
  0.265625   0.359375 0
  0.500000   0.796875 0
  0.078125   0.015625 0
  0.062500   0.015625 0
  0.484375   0.796875 0
  0.484375   0.781250 0
  0.062500   0.000000 0
  0.015625   0.250000 0
  0.062500   0.046875 0
  0.484375   0.828125 0
  0.484375   0.812500 0
  0.062500   0.031250 0
  0.281250   0.671875 0
  0.062500   0.234375 0
  0.328125   0.765625 0
  0.312500   0.750000 0
  0.015625   0.671875 0
  0.781250   0.187500 0
  0.015625   0.265625 0
  0.453125   0.250000 0
  0.453125   0.234375 0
  0.031250   0.265625 0
  0.046875   0.250000 0
  0.093750   0.015625 0
  0.265625   0.656250 0
  0.734375   0.281250 0
  0.156250   0.015625 0
  0.062500   0.265625 0
  0.046875   0.281250 0
  0.031250   0.281250 0
  0.343750   0.781250 0
  0.328125   0.781250 0
  0.265625   0.687500 0
  0.265625   0.703125 0
  0.156250   0.109375 0
  0.578125   0.890625 0
  0.484375   0.984375 0
  0.062500   0.203125 0
  0.328125   0.718750 0
  0.343750   0.734375 0
  0.343750   0.750000 0
  0.453125   0.500000 0
  0.437500   0.500000 0
  0.234375   0.093750 0
  0.171875   0.375000 0
  0.437500   0.531250 0
  0.468750   0.546875 0
  0.453125   0.546875 0
  0.187500   0.015625 0
  0.187500   0.000000 0
  0.609375   0.781250 0
[...]
CELL_DATA 7648
SCALARS scalar_value float 1
LOOKUP_TABLE default
0.122661
0.1099
0.093806
0.117859
1.55484e-09
9.47097e-10
9.67803e-10
6.22566e-10
0.106709
0.0914842
0.0873971
2.76961e-09
1.15551e-09
2.26683e-09
0.257898
0.26168
0.251058
0.271078
0.0461999
0.0444475
0.049529
0.0397556
7.78756e-05
0.00615863
0.00652596
0.00889314
0.00531718
0.0183714
0.0154011
2.45088e-05
2.6824e-05
3.83448e-05
1.55721e-05
5.7864e-05
6.146e-05
8.44845e-05
3.67298e-05
1.01073e-05
1.12354e-05
1.57547e-05
0.000456871
0.000927097
0.00535436
0.00353769
0.00276042
0.000126044
9.10902e-05
8.30321e-05
0.000858146
0.000187853
2.07046e-06
0.00162104
0.00189394
0.00167384
1.81691e-05
0.00805884
1.01602e-05
1.13474e-05
0.00268337
0.00369504
0.00505967
0.0167042
0.000779021
1.85251e-06
2.54794e-06
1.15522e-07
1.30853e-07
0.00204452
0.00810582
6.82338e-06
0.203891
0
0.0183828
0.0171601
1.56854e-05
5.78322e-08
0.0403452
1.07289e-07
5.52797e-06
0.0149928
0.0129018
9.22059e-10
6.72954e-06
7.34251e-08
1.13016e-05
3.86927e-05
0.180349
0.173332
1.55623e-07
0
9.18151e-05
5.64602e-08
0.0510577
0.0579155
2.50379e-08
0.00363289
0.000239248
0.00648298
0.000306525
0.00019266
0.0152081
0.000997503
0.0137674
0.011544
0.00233777
0.00570632
0.149984
1.24703e-05
6.15273e-06
0.000226511
0.0034998
5.77198e-05
3.97471e-05
4.6301e-08
0.0701752
3.56364e-08
0.0774814
0.0614972
0.000961099
9.92017e-10
6.04487e-10
1.08064e-10
2.46997e-08
0.0046139
3.74777e-09
6.62281e-09
3.42142e-09
0.00725061
0.00461491
0.00815392
2.83213e-08
0.000804113
2.85355e-08
4.07447e-08
0.248313
1.45885e-08
0.0456263
0.00214893
0.000128012
8.76327e-05
8.53072e-06
6.55253e-05
6.24505e-05
5.69965e-05
5.21807e-05
0.000146715
2.41472e-10
0.00105532
9.29964e-07
6.16065e-07
4.16597e-07
0.010928
0.013369
0.0163584
0
0
4.20466e-08
8.52763e-05
0.00020837
0.00244273
0
0.049505
0.055246
0.025501
0.000295369
0.000167933
4.15985e-05
0.000254701
0.0116274
1.06516e-09
3.77117e-08
0.000933582
2.8254e-05
0
4.78309e-05
0.000282823
8.74571e-09
0.000766414
0.0285497
0.000737772
0.000435851
0.0240211
7.43872e-06
0.0261645
5.2448e-09
0.00677852
4.08701e-06
1.58599e-09
3.51521e-09
0.00840252
2.40585e-09
0.00442513
3.6298e-06
3.12029e-06
0.000796642
2.50424e-06
2.59741e-06
1.78535e-06
1.51894e-07
2.04877e-07
1.84289e-07
1.4285e-06
0.0190191
2.02619e-06
2.13191e-06
0.00494269
0.004752
9.4747e-09
4.23043e-09
7.29505e-09
0.00156348
0.00227517
0.00313811
0.0021032
0.00203053
0.0729659
0
9.04049e-10
5.48838e-10
0.001145
0.000802088
0.0020222
0.00129514
0.000207929
0.00242063
3.44319e-05
0.000950378
0.00074763
0.00312684
0.00372478
1.26469e-07
2.43476e-07
0.00403539
0.0497038
2.47315e-07
1.55534e-07
1.20489e-07
1.181e-07
0.00231899
2.23891e-09
0.00242997
0
0.197874
3.05536e-07
2.11171e-07
0.00312073
0.166582
0.00444131
0.00305565
3.47128e-05
0.00563469
6.3828e-06
0.00388579
0.00442064
0.00351393
0.0438219
0.0750929
3.63226e-07
1.70572e-07
0.0370488
0.0418806
0.0393987
0.000206141
0.00160173
0.000312528
0.00398383
8.41546e-05
0.000634528
4.15604e-05
0.00823919
5.34091e-05
0.0134835
1.26273e-10
9.90519e-10
0
0.000172835
4.77829e-09
2.49573e-06
0.167767
0.189156
0.000441744
0.0889109
4.51349e-06
0
0.200604
2.8219e-06
0
0.000185107
9.41281e-07
0.000246989
2.17195e-06
3.00743e-09
6.6745e-05
2.65209e-07
0.0956412
0.0894719
2.51803e-07
0.0940617
1.09829e-08
7.4868e-06
0.00194568
0.248701
0
9.57712e-07
0.0283686
0.0240471
0.0216692
0.0482901
7.05559e-06
0.125821
0.117848
0.000320403
5.31889e-09
1.60464e-06
3.72283e-08
0.0138559
0.0750851
5.70641e-08
0.0674311
0.0168628
0.0596809
0.0208424
0.110826
0.00253265
0.000975042
0.00843478
0.00270715
0.00212703
0.00148439
0.00505741
0.000474023
0.00972795
0.000184375
0.150268
0
0.163343
0
3.01931e-08
2.76245e-08
0.00108118
0.00443129
3.41358e-08
2.16658e-08
1.37382e-09
7.27661e-10
0.234556
0.206715
0
6.49187e-07
1.73181e-07
2.84825e-07
2.26033e-07
0.0482587
2.87323e-05
6.70009e-05
8.22237e-05
0.000209382
4.00441e-10
4.0542e-10
2.72991e-10
0.0171953
0.018673
0.0247783
0.247323
0.00120998
1.72359e-07
0.000286511
6.61656e-07
1.08723e-05
1.03384e-05
0.00172504
0.256404
8.15993e-05
0.0106646
4.33398e-05
0.00481563
0
1.02789e-05
2.16894e-05
0.0231252
0.0895863
4.13815e-05
0.00142895
5.28837e-05
0.002243
0.0464464
0.00188603
0.234162
0.000688523
2.706e-07
1.11124e-07
0.222271
3.66195e-07
1.39698e-07
1.8878e-06
3.49658e-05
0.000707763
1.95965e-08
5.32819e-09
0.242193
9.17458e-06
6.19976e-06
0.000777675
3.29404e-05
0.000442324
0.242803
0.000272112
0.0234721
1.28306e-06
1.97055e-05
0
9.33673e-06
1.1642e-05
2.85498e-10
0.181525
9.31893e-06
2.18222e-07
6.4818e-06
0.000119009
0.21648
0.0322282
0.234647
7.22892e-10
0.00998023
0.0416482
0.0376636
1.59791e-10
0.0382921
1.75621e-05
0.00327647
0.00157824
0.00151686
0.00259396
4.73574e-05
0.00281841
0.00178268
0.000757632
4.43035e-09
4.13227e-07
0.00491786
0.010815
0.00725326
0.0181207
0.0314339
4.38976e-05
0.0404236
3.3886e-05
3.15104e-05
0.00428518
0.00266126
2.0381e-07
0.00143557
0.00259042
0.00235655
0.0035295
0.00361449
0.00452055
0.00381279
5.48547e-05
1.04816e-07
8.52917e-07
0.00495224
0.00923499
0.00693807
1.49145e-10
0.00202828
0.00166334
2.53587e-05
7.78279e-10
9.04009e-05
0.00347242
5.37964e-06
0.178758
8.98018e-08
6.00543e-06
0.169083
0.000683554
0.00984077
6.24062e-10
0.00568694
3.88232e-09
0.143092
1.49796e-08
5.62945e-09
0.0150705
0.0128358
0.00943436
0.000891585
0.00172219
0.00190538
3.66006e-06
0.0937613
5.10197e-06
0.161755
2.10527e-05
1.06796e-06
0.000449741
6.7279e-10
0.012576
0.00114768
0.000863058
1.30924e-05
0.0433517
2.44449e-05
1.70615e-05
4.07441e-05
0.00276346
0.00218776
0.00179786
0.00182727
5.71446e-09
0.000204031
0.00438934
3.84112e-05
0.000121434
0.000644142
0.00670037
0.0026065
0.000527921
0.00596547
0.00209817
7.25387e-05
0.000195183
0.000314083
4.82615e-07
0.0157526
5.42973e-09
0.000178375
0.0130444
0.010756
0.000234672
0.000753994
0
0.00104549
0.000308774
2.14381e-06
0.00021173
4.21136e-06
0.000176489
0.000271851
0.00024293
0.000106733
0.000143522
0.00011181
3.17979e-07
0.170431
1.12931e-10
0.0182988
3.12536e-07
0.0123783
0.0138906
1.29054e-08
0.0458238
0.0416079
0.0492741
0.0350864
0.0461514
0.000357843
0.000647778
0.000232654
0.000371364
0.000733078
0.000267726
0.0011359
0.00828852
0.00595939
0.00163118
0.00802204
0.00905816
0.00646434
0.0121037
2.37783e-07
0.0142704
0.000294913
0.00119702
0.228876
2.77854e-05
0.000572514
3.00487e-10
0.045003
0.0472419
0.0507954
0.000381114
0.000565537
1.69561e-07
0.000255182
0.212632
0.000724557
0.00015143
0.000166647
9.39235e-05
3.08293e-08
5.86179e-05
0.00177464
6.57823e-08
0.00447078
0.284969
0.013364
0.00110659
0.00588968
0.00139212
0.000950499
2.44179e-05
0.000697579
0.0110666
0
0.000791239
0
0.252123
1.18392e-09
8.01023e-10
4.92401e-10
5.34555e-05
6.38363e-05
7.09392e-05
0.0389029
2.40371e-07
0.0335634
0.00107378
3.46793e-06
9.0366e-05
7.0022e-06
5.82087e-06
0.000953997
0
0.00120985
0.000720126
6.09091e-06
9.38592e-06
0.00103128
0.00149763
3.83866e-07
3.43362e-06
2.7055e-06
3.41185e-08
0.147825
1.64549e-08
0.00495402
0.27631
0.274271
6.44608e-09
1.19992e-08
0.107656
9.64179e-07
2.568e-05
0.00288017
8.65567e-09
7.3415e-05
0.000111481
1.5022e-07
0.000791697
0.00183526
0.00209293
6.38081e-05
4.60822e-07
0.209065
6.07557e-05
0.186879
0.273226
0.136663
0.00552695
0.050529
0.130528
0.000597178
0.000215451
3.19715e-06
0.00078597
0.000345166
2.80442e-09
5.299e-09
2.67795e-09
0.0081089
5.95889e-09
0.00298903
3.8122e-09
9.20199e-05
0.18217
0.168311
0.147826
1.91492e-05
1.87307e-05
1.34696e-05
0.0561506
6.01228e-09
0.147421
0.00124402
0.00018595
0.00176147
4.97901e-05
0
0.00124021
0.000930821
0.000216707
0.0514593
0.00105579
0.00055667
0.0724413
0.0267231
1.04603e-06
0.000212436
0.000332885
3.58221e-09
0.0178515
0.0629112
0.0226097
0.0399831
0.0120951
0.00999683
4.72258e-06
3.95139e-06
9.04278e-07
5.55394e-07
3.93081e-07
0.00659496
0.00828803
1.31234e-06
1.04503e-06
0.00342488
0.016925
1.35286e-06
6.57147e-07
0.0221362
0.0186476
0.0177339
5.4347e-06
4.34363e-06
0.00614958
2.75813e-06
0.0335558
0.0363811
0.0310321
2.10802e-05
1.70204e-05
1.10225e-05
0.0149437
0.0100673
0.216286
6.19423e-05
7.71357e-05
4.112e-05
5.56952e-08
6.07027e-05
3.03563e-05
3.22465e-05
0.00592333
0.0427617
0.17346
0.0336488
0.104474
0.00144428
6.49926e-05
5.6374e-05
3.80864e-05
0.000643291
0.00134376
0.000826438
0.000939159
4.03749e-05
3.27232e-05
4.0455e-07
9.61267e-08
0.0011507
5.87987e-05
0.000117633
0.000142865
0.00011215
0
2.56834e-05
0.00411205
0.0682681
0.0557573
0.0602811
0.227209
0.220481
0.217126
0.00328833
7.67573e-06
0.00357946
0.00260323
0.0580397
0.0493158
0.101377
0.129083
2.87376e-07
7.13172e-10
1.13645e-06
0.0860327
0.0736407
1.25951e-07
0.00517477
0.00377339
0.000424734
0.0697184
0.0199687
3.83216e-09
0.0982555
0.0163926
6.26918e-06
6.84312e-05
4.90905e-06
1.59834e-05
0.000250314
3.28129e-06
0.0298716
0.0807327
0.00011154
0.00914378
0.0527265
0.0487519
0.0291792
0.0630651
2.53491e-07
0.0787494
7.17438e-05
0.0661874
0.0627714
0.0118463
0.194761
0.00185576
0.00100322
1.85309e-05
4.46273e-07
2.23334e-09
0.000304003
0.000154867
8.56758e-10
8.76097e-06
0.0147444
6.5685e-08
0.00104814
1.23125e-07
0.00218316
0.00594546
0.0050932
0.00605533
0.192544
0.186765
4.47637e-10
3.16319e-05
4.30757e-05
0.00759536
0.0431358
0.0337123
5.16874e-09
0.00226597
4.78383e-07
1.72583e-05
0.00412466
0.0136527
0.000292026
0
0.167243
0.00240369
0.00180561
0.157781
0.00198922
0.000236629
0.0152697
0.23863
0.0810466
0.00151982
0.00324259
0.00107201
0
0.00113712
1.12193e-06
2.19602e-08
0.0133348
0.00330062
0.00087296
0.00289433
0.00551638
0.00199089
1.98527e-09
3.85704e-09
1.5146e-09
0.0370674
0.00130973
4.61431e-08
0.00647714
9.48605e-10
0.0102868
0.00182124
0.00129564
3.89792e-10
0.00408246
0.00404467
0.00284569
0.00753453
9.01312e-10
3.51559e-10
0.131803
0.111564
0.136291
9.21231e-07
0.0160062
1.24006e-07
4.05557e-08
0.0259336
0.0194714
0.173743
0.0209238
2.11627e-06
8.90937e-05
1.02808e-07
0.0169893
5.34109e-07
0.0179566
0.0120808
0.0435439
0.0270323
0.0148695
0.0486808
9.22318e-06
5.59385e-06
1.91818e-08
0.00871997
8.69881e-05
0.01065
0.0114739
0.0218239
2.42296e-09
0.00016117
0.0140693
0.00706353
0.000662751
0.000118881
0.0195294
7.28865e-05
8.95153e-05
5.03056e-08
2.03317e-06
0.00477359
0.00443211
0.0034153
0.00538861
0.0374836
0.00685409
0.0248099
0.0148346
0.00844374
0.00409929
0.00044458
0.00698414
0.00350004
0.00607184
3.826e-07
2.24844e-08
0.000123279
4.75271e-05
0.000139308
0.00894943
0.0155717
0.000649962
0.0610949
0.0471591
0.0228837
2.87221e-06
1.41461e-06
0.00304071
2.59475e-07
1.82736e-07
0
1.0703e-09
2.34268e-05
1.28577e-08
5.02027e-08
0.073674
0.0161825
0
2.8061e-10
6.05444e-06
0.000440624
0
0.0141848
2.35807e-05
1.39069e-08
0
1.98102e-08
7.61201e-09
0.000511646
1.79083e-08
0
0.023004
1.41447e-05
6.01279e-06
0.0123878
2.53447e-05
2.29558e-05
0.00442318
4.70515e-06
0.0739479
2.1065e-08
0.0661567
0.000489539
0.0162389
0.0124949
0.00066273
4.47632e-08
0.0299518
3.08526e-09
0.00117622
0.0248433
3.39406e-05
5.52044e-08
0.00109057
2.68627e-08
0.000582999
0.0345975
2.75403e-06
2.50872e-08
0
1.95763e-05
0.00147729
0.0415898
0.184166
0
0.0414724
0.0413358
0.187069
0.0574196
0.0212214
4.30444e-06
0.000867383
0.0750627
0.0494369
0.068503
5.87005e-07
7.9416e-06
0
4.21859e-06
3.96979e-07
2.56404e-06
5.38989e-06
1.00788e-06
0.0833368
0.162422
0.014071
3.83001e-10
0.00205952
0.000253638
0.0264555
0.0235703
1.05469e-05
1.52204e-06
0.00012694
0.0292263
0
2.90363e-08
1.49943e-08
0.0228694
1.46589e-09
0.132996
8.17197e-10
2.98694e-06
5.93825e-07
0.00651812
0.0234616
0.000184317
0
0.0418415
1.69472e-10
3.22257e-08
0.000553921
0.0127794
0.00014053
0.0195296
0.0868844
0.0881568
0.000527289
2.46884e-10
0.000198818
0.0132596
0.00138833
0.0010747
0.014873
1.08146e-05
1.54514e-10
2.55949e-08
0
2.36714e-05
3.53248e-10
0
0.0487069
8.42552e-06
0.00466939
5.71067e-10
0
4.95317e-10
0
0.00667042
0.228092
1.45503e-05
1.8698e-08
0.000176018
4.08118e-06
2.4414e-10
0.207122
0.000756925
0.000147431
0
0.000472169
0.00147457
0.202452
0.000262164
0.00836375
1.51792e-05
0.000144721
0.00124093
0.000409021
0.00328572
0.000644468
0.000396624
0.00559676
0.00010057
0.220356
0.00017148
5.56986e-09
0.0358582
4.89974e-07
0.010013
0.00100314
7.26659e-09
0.0224439
2.18959e-09
0.208012
0.0054943
0.000483363
2.14944e-05
0.0537056
2.62352e-05
0.263164
3.21355e-05
0.000102803
0.00849122
2.99587e-07
0.00466034
4.72254e-06
0.0426813
0.000116261
4.61516e-09
0.26522
0.136023
0.000846617
0.0180954
0.00019234
0.0205602
1.16169e-06
0.0385343
2.34515e-05
6.12121e-06
1.95744e-09
7.49309e-05
0.000713806
1.41109e-06
3.78906e-09
1.35273e-05
1.28712e-05
0.00316909
0.0163549
0.0140178
0.00664269
5.45712e-05
0.000530376
0.00802454
2.24962e-07
0.0080971
1.08004e-05
1.65896e-05
0.140701
0.0182535
0.0100293
0.0382411
0.10131
5.81208e-05
0.028208
0.0636272
0.0112753
8.68122e-08
0.090665
0.0236074
2.80437e-05
0.0209914
7.36567e-09
0.0601282
2.47002e-05
2.82154e-07
0.0207963
9.36018e-05
4.44458e-08
1.06483e-08
2.22892e-08
0.0215491
2.19524e-05
1.47265e-05
0.000689544
0.0473012
0.0196396
0.0166458
1.67369e-10
4.49161e-05
0.0232294
0.0370618
0.00486452
0.0682192
2.20504e-08
0.0634388
7.26198e-09
1.43531e-08
0.0260189
0
1.15008e-07
0.015069
0.000584807
0.0326452
2.31746e-10
0.0161114
1.61595e-09
0
0.0268038
2.36124e-10
8.87856e-09
0.0163904
0.00304995
0.234753
4.89369e-05
2.1747e-06
0.000538347
0.00329659
0.00529308
0.000141854
3.71147e-07
0.000238447
0.000620778
0.00111727
8.56142e-05
0.000111932
0.0815257
0.00028876
0.000255823
5.17442e-06
7.09753e-07
0.00175308
4.01887e-10
0.111697
0.000805942
0.000746371
2.48651e-09
0.10244
0.00141631
0.00487397
0.160517
0.197812
7.91457e-06
0.0123512
1.36495e-05
0.139113
0.177956
0.000128483
0.00329497
0.00147693
3.80231e-09
0.000550203
0.000220758
0
0.0119425
1.47249e-10
2.40697e-09
0.0188879
0
3.08523e-05
7.11092e-10
0.00227806
0.058449
3.75097e-08
9.68917e-05
0.00137778
0.0027023
3.35317e-05
1.17946e-05
0.00270002
2.0892e-06
1.62497e-06
7.24732e-10
0.00244856
0.0107324
0.285114
4.23863e-09
0
0.0454123
1.71654e-07
5.89314e-10
0.0281565
6.25887e-06
0.00111126
5.10429e-06
6.88763e-09
0.255871
0.0613079
1.68786e-07
1.31043e-08
0.0853769
6.09081e-10
9.47585e-10
1.39885e-10
3.97383e-09
4.98031e-06
1.58291e-07
1.001e-09
0.00404791
0.0235968
0.0224241
0.00841026
8.15713e-08
4.17478e-09
0.0211846
0.0209147
0.0609428
0.00465747
0.00309415
0.0597807
1.08234e-06
9.46446e-05
0.00012299
8.31465e-06
1.15793e-05
3.68737e-06
4.5713e-05
0.000165661
0.0832781
0.0649864
0.0547152
4.09544e-06
0.000723487
7.14205e-06
0.000113103
6.89939e-07
0.0109892
0.000137344
1.13403e-07
0.00364427
0.000173058
0.00578467
0.031784
8.69754e-09
3.49394e-05
0.0034487
0
0.0014323
1.66361e-06
2.74105e-05
1.06833e-09
0.00123444
0.000117274
0.00228823
0.000170873
3.57015e-05
0.00409607
2.37136e-10
0.0198664
0.102256
5.02058e-10
0.218256
0
3.99482e-06
0.0411967
0.0326159
0.0655719
8.49347e-06
6.5056e-06
0.02576
0.00177625
0.0102748
0.00809255
1.67542e-10
0
0.00214475
0.174012
0.00654526
0.00514667
0.182661
0.000380247
0.0276292
2.57652e-08
1.49818e-07
1.80255e-06
0.00255774
1.95689e-10
4.59452e-05
0.00957897
5.06107e-09
0.00279111
0.00894227
9.46411e-05
2.37242e-06
1.8855e-08
5.14079e-10
0.00319552
0.0527469
3.27857e-06
0.0206764
0
7.50335e-07
0.000334283
0.00124439
1.03004e-08
0.00302216
0.00205203
6.62033e-05
0.0558489
1.66616e-05
5.1697e-07
0
0.0113184
4.96388e-09
3.62854e-05
6.01004e-05
5.83983e-05
5.33316e-06
0.106316
1.33405e-08
1.10276e-08
7.31905e-06
0
0.000138577
0.000118234
9.37597e-05
0.000311178
3.17788e-06
3.36448e-06
0.164642
0.0103209
0.00219316
0
0.000569317
0.000153848
0.0238439
2.71087e-06
1.1502e-05
5.14064e-06
0.0171634
0.163175
3.59007e-10
0.0319662
0.0195871
1.2807e-09
4.94015e-07
0.000206957
0.000297167
0
3.05461e-05
0.00994075
0.000106648
4.38956e-06
5.78087e-10
0.000191412
1.24726e-08
0.0021309
0.0498219
3.83125e-06
4.23095e-06
0.0447748
1.98158e-06
4.24202e-09
0.134672
0.0080051
0.00733902
0.156588
1.65745e-06
1.21862e-07
0.188114
0.127275
0.000118271
1.16661e-09
2.1836e-07
5.13091e-05
9.48255e-05
0.0599422
0.000337756
1.04279e-08
0.0118389
2.95197e-09
0.00275152
0.0037528
7.3497e-09
0.00307758
0.000282268
0.0967708
0.109986
0.000457522
0.176396
0
3.80994e-06
1.28906e-05
2.27161e-06
0.0110803
0
0.17009
0.000641053
0.000262307
1.01656e-06
1.39356e-08
0.000585344
0.000934269
0.199147
1.46251e-10
4.4594e-08
5.19646e-09
0.0292501
0
1.70219e-08
0.0359802
0.000263251
0.0596885
0.0587833
3.76738e-05
1.75392e-05
4.83872e-10
0.00144088
0.00339734
8.39253e-07
9.37953e-05
9.01982e-10
0.071275
3.31778e-07
0.0816294
0.0426273
0.0181381
0.159291
4.20043e-05
0.000175111
4.108e-06
0.000330952
0.246194
1.70695e-06
0.00409832
2.12751e-07
7.81698e-08
0.0405894
2.17174e-10
6.3216e-10
3.31477e-07
8.3861e-05
0.0459385
0.00368429
0.000416168
0.001701
0.0490449
0.000538391
0.020914
0.0189833
0.00137399
2.19972e-09
0.00586909
0.0545059
0.00520964
0.000446938
0
1.76248e-09
1.50354e-06
0.000180817
0.0238401
9.77722e-09
4.72496e-05
5.9411e-08
0.0093609
0.0125074
1.96299e-06
1.39842e-10
0.0515545
9.50454e-06
3.47846e-09
0
0.00677633
0.0423204
7.03469e-06
1.53967e-07
1.32399e-05
9.83592e-06
0.000127694
0.000174302
0.000559434
0.117816
0.0533769
5.79249e-07
0.0231328
1.94491e-09
0.00126061
0.00867515
0
0.00187963
0
9.34456e-09
0.0421726
0.000110344
0.0333047
7.34028e-10
7.10212e-08
0.00187605
0.0249093
0.0111663
2.4821e-05
2.62729e-06
2.05477e-06
0.0779042
0.0127986
2.53738e-10
0.0622233
0.065523
5.78729e-05
0.000770703
6.1359e-05
2.43499e-05
0.00122745
1.23728e-08
0.102239
3.5267e-07
9.15568e-05
5.6067e-05
5.23897e-07
2.36198e-07
3.11436e-05
7.53773e-05
4.68269e-09
8.81835e-07
0.00506799
0.0665193
1.23451e-09
2.53421e-06
0.0111703
0.127109
3.64029e-07
0.00160701
0.016011
3.16079e-05
0.282509
0.00565573
0.00170409
0.183166
0.00449876
0.163834
0.0022504
0.000417516
2.65305e-05
0.000598114
0.000649839
0.038378
0.0432397
0.00109433
3.62313e-06
9.34799e-10
0.000114722
0.18645
0.0134638
1.12347e-07
6.59856e-07
2.41548e-05
1.83926e-06
1.85174e-07
0.0555862
0.00283961
1.21804e-09
0.0117323
0.00236971
9.98321e-07
0.00934209
7.09991e-05
0.000157795
1.76461e-05
7.61622e-08
0.0215071
0.00220796
9.08347e-07
0.0153988
0.00533053
0.0254536
8.45964e-05
0.0075265
0.000355573
0.000255709
0
0.000129055
8.63633e-05
2.02438e-08
4.7235e-09
0.0200909
6.57897e-06
1.45984e-08
9.81784e-10
0.000111609
0.000333601
6.21094e-05
0.199734
0.00984141
0
0.183811
0.000370316
0.000154615
6.55018e-09
5.38497e-07
0.000322397
0.000874583
0.0358509
0.0327348
0.00123908
3.99311e-07
0.0299381
0.15449
2.7303e-09
2.08503e-09
0.000235347
0.000202767
0.000191581
2.1619e-09
0.067421
0.00010392
0.00013966
9.61122e-10
1.49763e-05
0
8.52345e-06
5.81128e-10
7.66261e-08
0.00395422
0.0192788
0.0149426
0.0548088
0.197323
0.0075535
5.22746e-06
1.05455e-08
0.188868
1.0704e-05
1.72755e-06
1.09418e-10
0.00969582
7.40457e-07
0.000416383
0.000969597
0
0
0.0084374
0.000446724
0
0.000219622
0.000163161
6.68309e-05
0.0167357
0.0105211
1.64162e-10
0.143014
0.0422461
0.0573916
1.53647e-07
0.0149965
0.000130746
0.0019139
2.43346e-10
2.47577e-10
0.0101901
0.00209818
0.00390441
0.00112539
0.000780005
4.65765e-10
2.17937e-10
2.46264e-09
0.0028134
1.34159e-10
0.00574142
0.00385884
0.174086
1.69933e-09
1.4668e-09
0.000129699
1.24993e-09
0.00162362
1.94908e-05
0.000420245
3.16416e-05
0.107222
7.12812e-05
0.103461
7.57719e-05
0.0985518
5.88613e-08
8.19741e-05
0.000139501
0.121265
0.00047633
0.00455531
0.00879168
7.47246e-06
0.00104537
0.0107501
1.34452e-05
0.00441558
1.61963e-09
0.00172557
4.34782e-07
4.04154e-05
3.7382e-05
1.90549e-06
0.000104763
3.19727e-10
2.49199e-07
0.148317
0.140548
2.82682e-06
9.82214e-10
0.000273254
0.00132968
0.0163352
0.139227
0.211467
1.66576e-08
3.714e-08
5.46292e-09
1.44183e-07
0.000147488
4.86745e-10
0.0102008
0.000339558
1.6648e-06
1.44464e-06
3.80797e-05
8.82388e-05
0.000122479
0.00011934
0.000192732
0.0459737
5.31648e-05
0.0345337
0.0428702
1.61474e-07
8.13694e-05
9.40051e-06
5.49669e-05
0.0434646
7.42224e-05
0.000122311
4.61734e-05
2.9202e-09
8.807e-05
7.53449e-05
0.200931
0.00829429
0.229193
4.37204e-06
2.4943e-05
0.00928509
0.021021