# vtk DataFile Version 2.0
Unstructured Grid by M++
ASCII
DATASET UNSTRUCTURED_GRID
POINTS 4072 float
  0.609375   0.843750 0
  0.562500   0.843750 0
  0.531250   0.843750 0
  0.875000   0.828125 0
  0.984375   0.828125 0
  0.953125   0.828125 0
  0.937500   0.828125 0
  0.843750   0.828125 0
  0.812500   0.828125 0
  0.781250   0.828125 0
  0.765625   0.828125 0
  0.734375   0.828125 0
  0.703125   0.828125 0
  0.671875   0.828125 0
  0.640625   0.828125 0
  0.609375   0.828125 0
  0.593750   0.828125 0
  0.562500   0.828125 0
  0.546875   0.828125 0
  0.531250   0.828125 0
  0.515625   0.828125 0
  0.968750   0.812500 0
  0.937500   0.812500 0
  0.921875   0.812500 0
  0.890625   0.812500 0
  0.859375   0.812500 0
  0.828125   0.812500 0
  0.796875   0.812500 0
  0.765625   0.812500 0
  0.750000   0.812500 0
  0.718750   0.812500 0
  0.687500   0.812500 0
  0.656250   0.812500 0
  0.625000   0.812500 0
  0.593750   0.812500 0
  0.578125   0.812500 0
  0.546875   0.812500 0
  0.531250   0.812500 0
  0.515625   0.812500 0
  0.984375   0.796875 0
  0.562500   0.015625 0
  0.953125   0.796875 0
  0.921875   0.796875 0
  0.906250   0.796875 0
  0.875000   0.796875 0
  0.843750   0.796875 0
  0.812500   0.796875 0
  0.781250   0.796875 0
  0.750000   0.796875 0
  0.734375   0.796875 0
  0.703125   0.796875 0
  0.671875   0.796875 0
  0.640625   0.796875 0
  0.609375   0.796875 0
  0.578125   0.796875 0
  0.562500   0.796875 0
  0.531250   0.796875 0
  0.515625   0.796875 0
  0.968750   0.781250 0
  0.546875   0.000000 0
  0.937500   0.781250 0
  0.906250   0.781250 0
  0.890625   0.781250 0
  0.859375   0.781250 0
  0.828125   0.781250 0
  0.796875   0.781250 0
  0.765625   0.781250 0
  0.734375   0.781250 0
  0.718750   0.781250 0
  0.687500   0.781250 0
  0.656250   0.781250 0
  0.625000   0.781250 0
  0.593750   0.781250 0
  0.562500   0.781250 0
  0.546875   0.781250 0
  0.515625   0.781250 0
  0.984375   0.765625 0
  0.953125   0.765625 0
  0.921875   0.765625 0
  0.890625   0.765625 0
  0.875000   0.765625 0
  0.843750   0.765625 0
  0.812500   0.765625 0
  0.781250   0.765625 0
  0.750000   0.765625 0
  0.718750   0.765625 0
  0.703125   0.765625 0
  0.671875   0.765625 0
  0.640625   0.765625 0
  0.609375   0.765625 0
  0.578125   0.765625 0
  0.593750   0.750000 0
  0.562500   0.765625 0
  0.546875   0.765625 0
  0.531250   0.765625 0
  0.562500   0.750000 0
  0.968750   0.750000 0
  0.937500   0.750000 0
  0.906250   0.750000 0
  0.875000   0.750000 0
  0.859375   0.750000 0
  0.828125   0.750000 0
  0.796875   0.750000 0
  0.765625   0.750000 0
  0.734375   0.750000 0
  0.703125   0.750000 0
  0.687500   0.750000 0
  0.671875   0.750000 0
  0.656250   0.750000 0
  0.625000   0.750000 0
  0.546875   0.750000 0
  0.531250   0.750000 0
  0.515625   0.750000 0
  0.562500   0.734375 0
  0.984375   0.734375 0
  0.953125   0.734375 0
  0.921875   0.734375 0
  0.890625   0.734375 0
  0.859375   0.734375 0
  0.843750   0.734375 0
  0.812500   0.734375 0
  0.781250   0.734375 0
  0.750000   0.734375 0
  0.718750   0.734375 0
  0.687500   0.734375 0
  0.671875   0.734375 0
  0.656250   0.734375 0
  0.640625   0.734375 0
  0.546875   0.734375 0
  0.531250   0.734375 0
  0.515625   0.734375 0
  0.562500   0.718750 0
  0.968750   0.718750 0
  0.937500   0.718750 0
  0.906250   0.718750 0
  0.875000   0.718750 0
  0.843750   0.718750 0
  0.796875   0.718750 0
  0.765625   0.718750 0
  0.734375   0.718750 0
  0.703125   0.718750 0
  0.687500   0.718750 0
  0.671875   0.718750 0
  0.656250   0.718750 0
  0.625000   0.718750 0
  0.546875   0.718750 0
  0.531250   0.718750 0
  0.515625   0.718750 0
  0.562500   0.703125 0
  0.953125   0.703125 0
  0.921875   0.703125 0
  0.890625   0.703125 0
  0.859375   0.703125 0
  0.828125   0.703125 0
  0.781250   0.703125 0
  0.750000   0.703125 0
  0.718750   0.703125 0
  0.687500   0.703125 0
  0.656250   0.703125 0
  0.546875   0.703125 0
  0.531250   0.703125 0
  0.515625   0.703125 0
  0.984375   0.687500 0
  0.937500   0.687500 0
  0.921875   0.687500 0
  0.906250   0.687500 0
  0.875000   0.687500 0
  0.843750   0.687500 0
  0.812500   0.687500 0
  0.765625   0.687500 0
  0.734375   0.687500 0
  0.703125   0.687500 0
  0.671875   0.687500 0
  0.640625   0.687500 0
  0.593750   0.687500 0
  0.562500   0.687500 0
  0.546875   0.687500 0
  0.531250   0.687500 0
  0.515625   0.687500 0
  0.968750   0.671875 0
  0.937500   0.671875 0
  0.921875   0.671875 0
  0.906250   0.671875 0
  0.890625   0.671875 0
  0.859375   0.671875 0
  0.828125   0.671875 0
  0.796875   0.671875 0
  0.765625   0.671875 0
  0.750000   0.671875 0
  0.718750   0.671875 0
  0.687500   0.671875 0
  0.656250   0.671875 0
  0.625000   0.671875 0
  0.593750   0.671875 0
  0.578125   0.671875 0
  0.546875   0.671875 0
  0.531250   0.671875 0
  0.515625   0.671875 0
  0.984375   0.656250 0
  0.953125   0.656250 0
  0.937500   0.656250 0
  0.921875   0.656250 0
  0.906250   0.656250 0
  0.875000   0.656250 0
  0.843750   0.656250 0
  0.812500   0.656250 0
  0.781250   0.656250 0
  0.750000   0.656250 0
  0.734375   0.656250 0
  0.703125   0.656250 0
  0.671875   0.656250 0
  0.640625   0.656250 0
  0.609375   0.656250 0
  0.578125   0.656250 0
  0.562500   0.656250 0
  0.531250   0.656250 0
  0.515625   0.656250 0
  0.968750   0.640625 0
  0.937500   0.640625 0
  0.906250   0.640625 0
  0.890625   0.640625 0
  0.859375   0.640625 0
  0.828125   0.640625 0
  0.796875   0.640625 0
  0.765625   0.640625 0
  0.734375   0.640625 0
  0.718750   0.640625 0
  0.687500   0.640625 0
  0.656250   0.640625 0
  0.625000   0.640625 0
  0.593750   0.640625 0
  0.562500   0.640625 0
  0.546875   0.640625 0
  0.515625   0.640625 0
  0.984375   0.625000 0
  0.953125   0.625000 0
  0.921875   0.625000 0
  0.890625   0.625000 0
  0.875000   0.625000 0
  0.843750   0.625000 0
  0.812500   0.625000 0
  0.781250   0.625000 0
  0.750000   0.625000 0
  0.734375   0.625000 0
  0.718750   0.625000 0
  0.703125   0.625000 0
  0.671875   0.625000 0
  0.640625   0.625000 0
  0.609375   0.625000 0
  0.578125   0.625000 0
  0.562500   0.625000 0
  0.546875   0.625000 0
  0.531250   0.625000 0
  0.968750   0.609375 0
  0.937500   0.609375 0
  0.906250   0.609375 0
  0.875000   0.609375 0
  0.859375   0.609375 0
  0.828125   0.609375 0
  0.796875   0.609375 0
  0.765625   0.609375 0
  0.750000   0.609375 0
  0.734375   0.609375 0
  0.718750   0.609375 0
  0.703125   0.609375 0
  0.687500   0.609375 0
  0.656250   0.609375 0
  0.625000   0.609375 0
  0.593750   0.609375 0
  0.562500   0.609375 0
  0.546875   0.609375 0
  0.531250   0.609375 0
  0.515625   0.609375 0
  0.984375   0.593750 0
  0.953125   0.593750 0
  0.921875   0.593750 0
  0.890625   0.593750 0
  0.859375   0.593750 0
  0.843750   0.593750 0
  0.812500   0.593750 0
  0.781250   0.593750 0
  0.750000   0.593750 0
  0.734375   0.593750 0
  0.718750   0.593750 0
  0.687500   0.593750 0
  0.671875   0.593750 0
  0.640625   0.593750 0
  0.609375   0.593750 0
  0.578125   0.593750 0
  0.562500   0.593750 0
  0.546875   0.593750 0
  0.531250   0.593750 0
  0.515625   0.593750 0
  0.968750   0.578125 0
  0.937500   0.578125 0
  0.906250   0.578125 0
  0.875000   0.578125 0
  0.890625   0.562500 0
  0.843750   0.578125 0
  0.828125   0.578125 0
  0.796875   0.578125 0
  0.765625   0.578125 0
  0.734375   0.578125 0
  0.703125   0.578125 0
  0.671875   0.578125 0
  0.656250   0.578125 0
  0.656250   0.562500 0
  0.625000   0.578125 0
  0.640625   0.562500 0
  0.593750   0.578125 0
  0.562500   0.578125 0
  0.546875   0.578125 0
  0.531250   0.578125 0
  0.515625   0.578125 0
  0.859375   0.562500 0
  0.828125   0.562500 0
  0.781250   0.562500 0
  0.750000   0.562500 0
  0.718750   0.562500 0
  0.687500   0.562500 0
  0.609375   0.562500 0
  0.578125   0.562500 0
  0.562500   0.562500 0
  0.546875   0.562500 0
  0.531250   0.562500 0
  0.515625   0.562500 0
  1.000000   0.812500 0
  0.578125   0.031250 0
  0.875000   0.546875 0
  0.625000   0.546875 0
  0.218750   0.000000 0
  0.640625   0.781250 0
  0.828125   0.093750 0
  0.031250   0.531250 0
  0.296875   0.328125 0
  0.296875   0.312500 0
  0.281250   0.312500 0
  0.765625   0.312500 0
  0.031250   0.859375 0
  0.093750   0.265625 0
  0.109375   0.250000 0
  0.187500   0.671875 0
  0.421875   0.640625 0
  0.031250   0.062500 0
  0.140625   0.125000 0
  0.562500   0.906250 0
  0.125000   0.437500 0
  0.203125   0.937500 0
  0.125000   0.421875 0
  0.140625   0.406250 0
  0.093750   0.437500 0
  0.109375   0.421875 0
  0.093750   0.421875 0
  0.109375   0.406250 0
  0.328125   0.125000 0
  0.750000   0.906250 0
  0.328125   0.109375 0
  0.750000   0.890625 0
  0.312500   0.125000 0
  0.734375   0.906250 0
  0.281250   0.343750 0
  0.265625   0.359375 0
  0.500000   0.796875 0
  0.078125   0.015625 0
  0.062500   0.015625 0
  0.484375   0.796875 0
  0.484375   0.781250 0
  0.062500   0.000000 0
  0.015625   0.250000 0
  0.062500   0.046875 0
  0.484375   0.828125 0
  0.484375   0.812500 0
  0.062500   0.031250 0
  0.281250   0.671875 0
  0.062500   0.234375 0
  0.328125   0.765625 0
  0.312500   0.750000 0
  0.015625   0.671875 0
  0.781250   0.187500 0
  0.015625   0.265625 0
  0.453125   0.250000 0
  0.453125   0.234375 0
  0.031250   0.265625 0
  0.046875   0.250000 0
  0.093750   0.015625 0
  0.265625   0.656250 0
  0.734375   0.281250 0
  0.156250   0.015625 0
  0.062500   0.265625 0
  0.046875   0.281250 0
  0.031250   0.281250 0
  0.343750   0.781250 0
  0.328125   0.781250 0
  0.265625   0.687500 0
  0.265625   0.703125 0
  0.156250   0.109375 0
  0.578125   0.890625 0
  0.484375   0.984375 0
  0.062500   0.203125 0
  0.328125   0.718750 0
  0.343750   0.734375 0
  0.343750   0.750000 0
  0.453125   0.500000 0
  0.437500   0.500000 0
  0.234375   0.093750 0
  0.171875   0.375000 0
  0.437500   0.531250 0
  0.468750   0.546875 0
  0.453125   0.546875 0
  0.187500   0.015625 0
  0.187500   0.000000 0
  0.609375   0.781250 0
[...]
CELL_DATA 7648
SCALARS scalar_value float 1
LOOKUP_TABLE default
0.0639137
0.0544523
0.0426985
0.0607929
0
0
0
0
0.0524756
0.0413729
0.0383436
0
0
0
0.214568
0.224646
0.209253
0.246036
0.0867998
0.0836527
0.0918727
0.0755758
4.34691e-05
0.0124413
0.013152
0.0177147
0.010798
0.00489563
0.00390368
2.29513e-05
2.4288e-05
3.52182e-05
1.31499e-05
5.18491e-05
5.2917e-05
7.34649e-05
2.93905e-05
7.57002e-06
8.04085e-06
1.14614e-05
0.000992223
0.0019871
0.0015254
0.000889994
0.000668947
1.00441e-05
6.69632e-06
5.77923e-06
0.00115922
1.48983e-05
6.64457e-08
0.00143015
0.00283003
0.00229769
1.84973e-06
0.0161645
8.95584e-07
1.06954e-06
0.00603044
0.00817792
0.0110024
0.0316031
0.000800365
1.13389e-07
1.68469e-07
2.11686e-07
2.35005e-07
0.00330055
0.00385925
1.7495e-05
0.252075
0
0.00907558
0.0076347
1.47972e-06
8.6327e-08
0.0132454
1.65471e-07
4.21624e-07
0.00581468
0.00461597
9.25209e-10
1.72828e-05
1.16945e-07
5.3815e-07
2.96127e-05
0.243239
0.23708
5.74512e-09
0
0.000157017
1.28043e-07
0.0914606
0.100481
4.12381e-08
0.00745189
3.75265e-05
0.0133129
4.53427e-05
2.51327e-05
0.00627815
0.0010246
0.00545793
0.00399039
0.00241305
0.00327468
0.115346
6.21702e-07
2.84719e-07
0.000554828
0.00739894
9.43474e-06
6.00043e-06
6.98314e-08
0.122943
5.00539e-08
0.131566
0.110095
0.00141688
0
0
0
4.39493e-08
0.00370948
3.31993e-09
5.36751e-09
2.7034e-09
0.00144637
0.000811796
0.00165448
2.38129e-08
0.000125119
4.93875e-08
9.58438e-10
0.277089
2.92554e-10
0.0142139
0.00294789
0.000140628
6.87903e-06
6.95903e-07
4.77355e-06
4.39963e-06
6.39713e-05
3.59937e-06
1.1578e-05
0
0.000830602
2.61457e-08
3.02029e-08
1.89495e-08
0.0226844
0.0272699
0.0329424
0
0
8.40969e-10
9.50948e-05
1.68771e-05
0.00364633
0
0.0905501
0.100102
0.0141383
2.64297e-05
1.32246e-05
4.15355e-05
2.27777e-05
0.0211229
0
6.76376e-08
9.17348e-05
1.71533e-06
0
7.68906e-06
0.000132851
1.23257e-10
9.23129e-05
0.0191136
8.47135e-05
4.41606e-05
0.0145918
3.25771e-07
0.00762363
5.7063e-09
0.00729376
1.50754e-07
1.35033e-09
3.25489e-09
0.00183239
1.93889e-09
0.000839293
2.28607e-07
8.13267e-06
0.00185104
1.44744e-07
1.45322e-07
9.70286e-08
3.07598e-07
4.17544e-07
3.67048e-07
5.04112e-08
0.0249578
6.57647e-08
6.9225e-08
0.00480337
0.00768966
1.76418e-10
0
1.31362e-10
0.00356296
0.00510449
0.00691585
0.00476069
0.000241649
0.119504
0
0
4.33692e-10
0.000303593
0.000161843
0.000277999
0.000159707
0.000348219
0.000360137
5.5616e-05
0.000254264
0.000180711
0.000489215
0.000609427
2.54486e-09
5.54834e-09
0.000692279
0.0433737
5.48246e-09
3.19645e-09
2.37074e-09
2.30786e-09
0.000393017
1.58498e-09
0.000439652
0
0.256283
1.30158e-08
8.3387e-09
0.000449408
0.148942
0.00074283
0.000465436
6.0316e-05
0.00105665
5.212e-07
0.00604029
0.00662647
0.00504062
0.0145695
0.0936595
1.54903e-08
6.29542e-09
0.0706235
0.0785268
0.0735372
2.30089e-05
0.00341602
0.000580202
0.000597722
0.000100941
6.63085e-05
4.5608e-05
0.00151565
2.86713e-06
0.0205588
0
0
0
0.000322696
0
1.5064e-07
0.236143
0.260237
0.00106634
0.036317
3.18225e-07
0
0.233376
1.43135e-07
0
0.000335434
6.60207e-07
3.06974e-05
1.67099e-06
0
9.74827e-06
2.33828e-07
0.111372
0.10129
2.03299e-07
0.100881
1.66316e-08
6.17747e-07
0.00161622
0.28783
0
5.07451e-08
0.0553795
0.0475252
0.043065
0.0768702
5.14516e-07
0.196114
0.188931
4.13836e-05
0
2.83071e-06
1.03101e-09
0.0056917
0.126787
1.71715e-09
0.116274
0.00778555
0.106194
0.0415846
0.052786
0.00052691
0.000151623
0.00601163
0.00208213
0.000438532
0.000267982
0.00377219
7.17831e-05
0.0193371
1.52282e-05
0.0852656
0
0.0956825
0
5.48354e-10
5.11093e-10
0.000897156
0.00117386
6.0587e-10
3.64789e-10
1.64892e-09
0
0.170163
0.135729
0
4.68095e-07
4.29805e-07
7.05137e-07
5.37959e-07
0.0882516
2.20227e-06
0.000159577
8.05178e-06
0.000480745
0
0
0
0.0133759
0.015426
0.0214654
0.237937
0.000214946
6.32349e-09
3.81695e-05
1.08673e-06
1.78935e-05
1.80904e-05
0.000308103
0.267483
0.000152278
0.00212683
7.88937e-05
0.000776019
0
1.86628e-05
2.65219e-06
0.0442043
0.111592
3.33784e-06
0.000614531
7.61689e-06
0.000323319
0.0291487
0.000258861
0.262681
0.00159497
8.48913e-09
3.04364e-09
0.183427
1.05738e-08
3.69299e-09
7.17435e-08
2.25219e-05
0.000870882
3.30554e-10
1.02928e-10
0.200815
5.83117e-06
2.80183e-07
0.000128912
4.62206e-06
6.35601e-05
0.216784
0.000587675
0.00563933
4.3268e-08
1.16641e-05
0
7.55971e-07
1.02951e-06
0
0.183004
8.72604e-07
5.56043e-07
5.61626e-07
0.000288665
0.22824
0.00865816
0.226051
0
0.0171468
0.0779199
0.0711104
0
0.0720541
1.57275e-06
0.00679154
0.000309594
0.00111071
0.00542853
0.000115322
0.00592923
0.00376224
0.00165621
7.20081e-09
1.10929e-08
0.00109532
0.0100803
0.00181812
0.0324078
0.0597509
3.90773e-06
0.0753519
2.87965e-06
2.83236e-06
0.00107677
0.00058059
4.43314e-09
0.000992381
0.00536334
0.0019389
0.000841394
0.00741916
0.00922633
0.00782128
6.87589e-06
3.52488e-09
2.6582e-08
0.00506182
0.00272381
0.00212744
1.21719e-10
0.00422128
0.00349133
6.10196e-05
6.71271e-10
0.000210253
0.000560561
9.49433e-06
0.236813
2.09187e-07
1.00825e-05
0.22356
0.00063072
0.00342372
4.77121e-10
0.00122896
2.78944e-09
0.210894
1.1207e-08
3.78417e-09
0.00363795
0.00296238
0.00200513
0.000150458
0.00117625
0.00120812
9.49869e-06
0.156926
1.32652e-05
0.223317
2.1521e-06
2.7902e-06
0.0002596
0
0.00491856
0.00208018
0.00156117
1.03105e-06
0.026231
2.01384e-05
1.38529e-05
2.52116e-06
0.00507131
0.00401349
0.00318977
0.00342446
0
3.32242e-05
0.0093616
9.7826e-05
1.70526e-05
0.0012295
0.00121052
0.00504739
0.000969684
0.0011345
0.00405465
5.09652e-06
0.000260215
0.000410021
2.2144e-08
0.00851486
0
1.62498e-05
0.00667683
0.00580721
2.40798e-05
0.00167913
0
0.00233104
7.18574e-05
6.92315e-08
4.32604e-05
1.53844e-07
3.81214e-05
5.6141e-05
5.32633e-05
1.79052e-05
0.000187987
0.00013711
8.57206e-09
0.164673
0
0.0110086
1.32885e-08
0.00639872
0.00804205
1.76306e-10
0.0311402
0.0280919
0.0251033
0.0164066
0.0217799
3.30705e-05
0.000871115
0.0003001
3.43262e-05
0.0015521
0.00057732
0.00239885
0.00268824
0.00279886
0.00151375
0.0025094
0.00295275
0.00185847
0.0206141
9.45608e-09
0.00803079
3.0505e-05
0.00278426
0.26743
1.47602e-06
0.00122282
0
0.0819014
0.0256429
0.028284
0.000922649
0.00135059
6.3178e-09
0.000624028
0.144152
7.86392e-05
0.000260105
1.28469e-05
6.4037e-06
2.32655e-08
5.94675e-05
0.0035973
1.15569e-09
0.00932633
0.2977
0.00284152
0.00226404
0.00099638
0.00272599
0.00187438
2.5269e-05
0.00143016
0.00209248
0
0.00157733
0
0.268351
0
0
0
4.56053e-06
5.82483e-06
6.47074e-06
0.0722194
7.53353e-09
0.0631195
0.00183679
2.33364e-06
8.701e-06
5.15193e-06
3.81336e-06
0.00180704
0
0.00230122
0.00132662
5.1626e-06
8.09205e-06
0.00240767
0.00344659
1.63251e-08
2.69681e-06
1.88166e-06
5.45367e-10
0.207777
2.3421e-10
0.000895602
0.27234
0.277652
1.09367e-10
2.29217e-10
0.0718257
2.48951e-08
2.01674e-06
0.00044624
1.56752e-10
0.000184994
0.000278235
3.48798e-07
0.00032494
0.000254837
0.00029593
0.000111594
1.15892e-06
0.250405
9.89895e-05
0.232069
0.291116
0.177133
0.00155955
0.0168774
0.177838
0.000979995
0.000165923
1.16654e-07
0.00134252
0.000284611
3.39164e-09
6.4038e-09
2.9031e-09
0.0164353
0
0.0064862
0
3.74319e-05
0.118275
0.105149
0.0859658
1.06997e-06
1.01599e-06
7.06564e-07
0.0204485
8.10217e-09
0.107821
0.000143482
1.48682e-05
0.000240115
7.24746e-05
0
0.000155464
0.000108557
0.000335482
0.0276774
0.000126507
5.73202e-05
0.039739
0.0506667
4.0348e-08
2.45592e-05
4.399e-05
0
0.00460373
0.0679501
0.00649429
0.0465645
0.00330481
0.00252822
1.80434e-07
1.43801e-07
2.56171e-08
1.45164e-08
9.60908e-09
0.00133013
0.00186425
3.8913e-08
2.96678e-08
0.0029872
0.0142817
4.0378e-08
1.72576e-08
0.00653232
0.00523638
0.00509791
2.08722e-07
1.59711e-07
0.00111382
9.3655e-08
0.0122502
0.0130421
0.0103468
1.05143e-06
8.13189e-07
4.85818e-07
0.030075
0.0209249
0.163636
3.85224e-06
5.04766e-06
2.35812e-06
1.67388e-09
3.78762e-06
1.65021e-06
1.76442e-06
0.012806
0.0189156
0.238302
0.0133376
0.0479667
0.00157254
4.15707e-06
3.44729e-06
2.14884e-06
0.00153368
0.00311541
0.00195086
0.00220898
5.1225e-06
4.09793e-06
2.87057e-07
3.15918e-09
0.000644591
0.000131594
0.000266957
3.48655e-05
0.000202436
0
1.30884e-06
0.00168812
0.0606005
0.0463589
0.0541131
0.250473
0.248959
0.254181
0.0013705
5.0605e-06
0.00140805
0.000978971
0.0218253
0.0170367
0.140063
0.163967
6.53434e-07
0
2.80551e-06
0.0388269
0.0302076
3.73453e-09
0.00276316
0.00191541
0.000913386
0.111945
0.037323
0
0.146677
0.0330454
4.79299e-07
0.000171952
3.43282e-07
4.11244e-05
0.000607935
2.1678e-07
0.0466251
0.0354841
0.000242487
0.00175639
0.019149
0.0663334
0.04221
0.0256256
1.8388e-07
0.0808041
9.57244e-06
0.0667642
0.0606194
0.00343693
0.246094
0.000252765
0.000117912
1.98764e-05
2.04694e-08
0
0.000580255
0.000291333
0
5.24267e-07
0.00356262
5.16991e-08
0.000172472
9.59625e-08
0.0011761
0.00111095
0.000907807
0.00112949
0.251749
0.251401
0
3.27789e-06
4.87143e-06
0.0161915
0.013507
0.00951202
8.71596e-09
0.00176373
1.18732e-08
1.61724e-06
0.00902032
0.0239944
2.194e-05
0
0.131108
0.00031481
0.000215183
0.106433
0.000256386
0.00042117
0.00397779
0.289562
0.0493241
0.000200408
0.00543779
0.000129637
0
0.00225869
2.84407e-06
4.79961e-10
0.027181
0.000533291
0.000765671
0.00268714
0.00151285
0.00174379
1.88079e-09
3.7622e-09
1.33806e-09
0.0627178
0.00122144
8.88281e-08
0.00126747
8.08824e-10
0.0024994
0.00197785
0.00126794
3.53458e-10
0.00351926
0.00096396
0.000580298
0.00630304
8.32805e-10
2.94614e-10
0.0662294
0.0522041
0.0708044
2.84513e-08
0.00518033
2.1054e-07
6.6935e-08
0.00921409
0.00619191
0.234523
0.00752224
1.30652e-07
0.000223795
2.50163e-07
0.0343901
2.46625e-08
0.0361698
0.0250277
0.0158783
0.0361366
0.0206936
0.019669
4.35281e-07
2.3285e-07
2.43018e-08
0.016897
5.63945e-06
0.0204768
0.0225571
0.0421519
0
6.5055e-05
0.0277042
0.0145298
0.000326436
1.36366e-05
0.0378218
7.35355e-06
1.05854e-05
9.69859e-10
3.23025e-06
0.0011872
0.00102714
0.00072484
0.00103316
0.0349027
0.0014723
0.0244391
0.0152863
0.00205437
0.00108831
0.000366522
0.00196986
0.00321906
0.00164783
1.035e-08
3.09196e-08
2.33281e-05
0.0001206
2.82989e-05
0.0179364
0.0302906
0.000163572
0.0906522
0.0271744
0.00625543
4.75862e-06
2.36471e-06
0.00628476
6.59042e-09
4.26857e-09
0
0
5.96848e-05
2.07263e-08
4.18596e-08
0.0337167
0.0243817
0
1.92589e-10
2.62689e-07
0.000345396
0
0.00402791
2.14134e-06
1.93316e-10
0
2.91591e-10
0
5.20522e-05
2.57797e-10
0
0.031289
5.89967e-07
3.32169e-07
0.0174487
1.23117e-06
1.01803e-06
0.00971069
3.59306e-07
0.129526
3.12894e-08
0.0264849
5.73065e-05
0.0102211
0.00840524
8.90333e-05
7.36836e-10
0.0169703
2.02248e-09
0.000180155
0.0365632
1.62633e-06
9.50979e-10
0.000132831
4.11635e-10
6.0067e-05
0.0209614
1.91919e-07
3.80911e-10
0
2.12809e-06
0.000194795
0.030913
0.171564
0
0.0768908
0.0124196
0.219754
0.0234806
0.0301984
1.59068e-07
0.000203926
0.10267
0.0728917
0.0272221
2.26938e-08
1.99199e-05
0
4.07635e-06
3.12163e-07
2.27878e-06
4.37804e-07
9.01507e-07
0.0330923
0.220524
0.00478965
0
0.0012066
3.13766e-05
0.00840242
0.0290381
8.76565e-06
1.46896e-06
0.000151246
0.0124842
0
4.39994e-08
1.83161e-08
0.0438778
0
0.159308
0
1.20784e-07
1.69181e-08
0.00554134
0.0424695
1.27977e-05
0
0.0777989
0
5.7627e-10
0.000276724
0.0238628
0.000345114
0.0385599
0.143417
0.0390887
4.53028e-05
0
1.4427e-05
0.0260008
0.00173979
0.00122266
0.0290747
7.11651e-07
0
6.67659e-10
0
1.68758e-06
0
0
0.0327863
3.50587e-07
0.00957556
0
0
0
0
0.0142969
0.241633
1.00701e-06
2.84929e-08
1.96537e-05
3.07632e-06
0
0.272125
0.000187875
1.56658e-05
0
0.00107206
0.00210117
0.161133
3.00372e-05
0.00492333
1.57202e-05
1.55868e-05
0.000153696
0.000565881
0.00217502
9.81875e-05
5.24644e-05
0.00352964
0.000216867
0.171727
2.00489e-05
8.27095e-09
0.0227001
1.27406e-06
0.0204918
0.00118949
1.06987e-08
0.0371
1.88003e-09
0.144436
0.000849347
7.00684e-05
5.11548e-05
0.0179355
2.07255e-05
0.238568
3.19464e-06
4.12472e-05
0.0175497
6.8798e-09
0.00201374
3.20348e-06
0.0127469
0.00026981
0
0.280462
0.085563
8.55284e-05
0.0353691
2.25255e-05
0.039465
4.80493e-08
0.0209403
1.65106e-05
4.70298e-06
0
0.000182711
0.00104856
1.00214e-06
0
3.33995e-05
6.10313e-07
0.00361784
0.00604053
0.00440377
0.00749929
2.80435e-05
0.0012455
0.0167636
8.95387e-09
0.00819127
4.72578e-07
8.24328e-07
0.202104
0.00692295
0.0135678
0.0149763
0.0467154
3.73037e-06
0.0130849
0.0289674
0.0165606
2.32902e-09
0.0380245
0.0114293
1.5973e-06
0.00939151
8.2518e-09
0.0205941
1.33298e-06
4.75342e-07
0.0085504
0.000101317
8.54667e-10
2.32845e-10
1.78375e-08
0.0380513
1.19324e-06
7.36243e-07
0.000606384
0.087531
0.0101537
0.00667133
1.23972e-10
2.92216e-06
0.011991
0.0157043
0.00667594
0.11981
1.54319e-08
0.0754141
1.48604e-10
1.97988e-08
0.0129478
0
2.5428e-09
0.00318792
0.00114932
0.0142652
2.03161e-10
0.00354875
0
0
0.00711912
0
1.53117e-08
0.0284964
0.00120003
0.294561
0.000122482
5.66085e-06
0.00125114
0.00734609
0.00696892
1.05931e-05
6.37434e-07
0.000337652
6.53436e-05
0.000134456
0.000112507
7.96353e-06
0.0418796
2.51272e-05
2.17997e-05
3.34316e-07
2.30264e-08
0.000273345
0
0.0716517
8.87521e-05
0.00118863
0
0.169815
0.00296833
0.000817928
0.23822
0.2768
4.82518e-07
0.0250023
1.02079e-06
0.217108
0.260697
0.000295912
0.00589536
0.000186199
0
0.000314742
2.78882e-05
0
0.00438641
0
0
0.00873405
0
2.32648e-06
0
0.000318573
0.0205518
1.05193e-09
1.34607e-05
0.00244252
0.000413989
2.27552e-05
7.5319e-06
0.000961352
1.36326e-07
4.18453e-06
0
0.00109531
0.00378362
0.273535
4.35995e-09
0
0.0154924
2.7579e-07
6.33029e-10
0.0193439
1.62193e-05
0.00252188
4.81427e-06
1.21654e-10
0.254048
0.0231347
2.81939e-07
1.95018e-08
0.0396547
7.1874e-10
1.05099e-09
0
4.42621e-09
3.33227e-07
2.7599e-07
1.22178e-09
0.00508149
0.00914424
0.00766386
0.0104234
5.86726e-08
5.19443e-09
0.00519709
0.00516782
0.053188
0.00081451
0.000481055
0.0475649
1.86791e-06
0.00014966
1.89583e-05
7.68975e-07
2.96928e-05
6.60786e-06
0.000104852
2.66527e-05
0.0885622
0.110654
0.0637187
1.05655e-05
0.00164269
1.81883e-05
0.00027209
1.19846e-06
0.00401125
4.31042e-05
1.82835e-07
0.0020323
1.89005e-05
0.00299766
0.023888
1.35436e-10
1.9656e-06
0.00163415
0
0.000433808
4.19826e-06
1.47087e-06
7.00621e-10
0.00063816
1.20366e-05
0.00112696
0.000206911
2.21462e-06
0.00685024
2.7291e-10
0.00520899
0.107811
0
0.149562
0
1.7663e-07
0.0314566
0.0611248
0.116478
3.70766e-07
2.70718e-07
0.0117374
0.00222504
0.00288858
0.00860808
1.63789e-10
0
0.00370769
0.162378
0.00113006
0.000813036
0.15021
6.8672e-05
0.0493018
4.92912e-08
3.05322e-09
7.73764e-08
0.000397947
2.42103e-10
2.81793e-06
0.00475235
0
0.00616315
0.00173553
1.37055e-05
7.03657e-08
4.62605e-10
3.47881e-10
0.000630282
0.0957113
1.06412e-07
0.00494536
0
3.70027e-08
0.00047869
0.00264316
8.07079e-09
0.002162
0.00042988
1.21736e-05
0.0619995
1.53566e-05
8.75969e-07
0
0.0231448
0
1.79634e-06
3.41708e-06
3.15408e-06
1.8108e-07
0.150812
1.08654e-08
1.47564e-10
2.61089e-07
0
6.88279e-05
1.54164e-05
1.03069e-05
0.000155845
2.73675e-06
1.04641e-07
0.140854
0.00198529
0.00459037
0
0.00125769
0.000245703
0.0222894
9.24734e-08
2.79628e-05
1.71919e-07
0.00395928
0.176652
0
0.0103644
0.00510868
1.25878e-09
1.24657e-08
1.44453e-05
2.25078e-05
0
1.4464e-06
0.00209884
1.67363e-05
1.48548e-07
0
0.000415554
1.72682e-10
0.00444015
0.038216
1.23296e-07
1.62124e-07
0.082093
5.90562e-08
0
0.146606
0.0015374
0.00132862
0.161846
4.66238e-08
3.4565e-09
0.136641
0.0647522
8.59902e-06
0
3.76317e-07
3.13013e-06
9.09423e-05
0.0752411
0.000740063
2.27982e-10
0.0102578
0
0.00475273
0.000628205
5.28072e-09
0.000671136
2.22467e-05
0.0482653
0.0633408
4.21044e-05
0.114076
0
2.16787e-07
3.32856e-05
6.6118e-08
0.00226553
0
0.171423
9.92116e-05
3.10875e-05
7.94148e-07
1.94504e-10
9.08741e-05
0.00060609
0.193371
0
8.35334e-08
1.00167e-10
0.0490145
0
3.27988e-10
0.0251645
5.06389e-05
0.107127
0.0941399
3.04425e-06
1.17165e-06
0
0.00269391
0.000523105
3.61169e-08
6.50174e-06
0
0.0411924
7.52437e-09
0.140466
0.079396
0.00478291
0.221871
4.13098e-06
7.57609e-05
1.43717e-07
0.000794522
0.253941
4.76e-08
0.000702312
4.71587e-07
2.49852e-09
0.0123079
0
0
5.43374e-07
1.21779e-05
0.0497961
0.00060486
0.00068063
0.000228199
0.0364997
0.000600494
0.0104082
0.00823913
0.00156275
0
0.0107963
0.0412736
0.000953549
0.000780753
0
0
8.57608e-08
0.000264753
0.0148543
1.33725e-10
2.91419e-05
1.42254e-09
0.0188696
0.024687
9.01564e-08
0
0.037248
7.35757e-07
5.0097e-09
0
0.00608982
0.0240569
4.80628e-07
3.2147e-07
1.1175e-06
7.33445e-07
4.33792e-05
0.000422087
0.000437417
0.17897
0.0965213
1.6934e-08
0.0441819
0
0.00164335
0.0182378
0
0.00194963
0
1.12713e-08
0.0158529
7.08431e-06
0.0497018
4.98917e-10
1.38436e-09
0.00103087
0.0423893
0.00913005
6.35088e-05
1.25495e-07
6.90695e-08
0.0776524
0.00294338
0
0.10202
0.100099
0.000145035
0.000179018
3.81801e-05
1.44308e-05
0.000343995
2.2719e-10
0.170119
1.41789e-08
3.933e-05
6.44694e-06
1.88307e-08
5.25132e-09
7.95935e-05
9.86937e-06
0
3.53044e-08
0.000898914
0.0571725
0
8.51149e-08
0.00252307
0.0633321
9.29294e-09
0.00103381
0.0145821
3.71319e-06
0.276687
0.00104194
0.00391188
0.128059
0.000658695
0.102285
0.000322739
0.000630769
2.67755e-05
0.000139695
6.85423e-05
0.0198086
0.0277777
0.000130558
2.14719e-07
0
8.14205e-06
0.181558
0.00281558
2.17683e-09
1.73949e-08
2.3597e-06
4.8009e-06
5.66811e-09
0.0449071
0.000434974
1.11513e-09
0.0026652
0.00233083
2.85516e-08
0.00884605
8.03108e-06
7.3323e-05
4.33809e-05
2.45071e-09
0.0409512
0.000485134
2.28979e-08
0.0284612
0.00239175
0.0403913
4.86256e-06
0.00547898
0.000634489
0.000230974
0
8.26767e-06
4.99895e-06
3.79839e-10
0
0.0251716
2.50789e-07
2.82781e-10
0
7.84814e-06
3.01464e-05
6.79694e-05
0.172388
0.00182914
0
0.114888
3.48097e-05
1.12826e-05
0
5.04206e-07
0.000503103
0.000101238
0.0243551
0.0239944
0.000161447
1.39585e-08
0.0565102
0.0871871
0
0
1.96384e-05
1.62668e-05
0.000224552
0
0.119586
7.2362e-06
0.000148328
0
1.42313e-05
0
8.18512e-06
0
2.46083e-09
0.00182387
0.0217928
0.00409974
0.0180988
0.237671
0.00204712
4.58483e-06
1.93921e-10
0.244978
2.71859e-05
1.38138e-06
0
0.00308616
5.98861e-07
3.96176e-05
0.00126151
0
0
0.00153513
0.000855138
0
3.8516e-05
2.51942e-05
3.24806e-05
0.00512128
0.012311
1.75573e-10
0.205365
0.0779666
0.103063
5.68458e-09
0.0296691
9.57283e-06
0.00229986
2.33851e-10
2.61559e-10
0.00233778
0.000838897
0.00538567
0.00160128
8.5868e-05
3.86926e-10
0
2.31738e-09
0.000368171
0
0.0114785
0.000561037
0.109305
1.12099e-09
1.92114e-09
1.96585e-05
0
0.00251128
1.45806e-06
0.000163288
7.86107e-05
0.0483929
4.58093e-06
0.0463492
4.91617e-06
0.0424544
1.55494e-09
1.53377e-05
1.03268e-05
0.0581646
0.000988259
0.00932016
0.0104079
3.08304e-07
0.000549732
0.0139187
6.06398e-07
0.00947755
0
0.000235228
9.56767e-09
5.45337e-06
9.47311e-05
1.31216e-06
1.0775e-05
0
5.18765e-07
0.17749
0.156463
1.10224e-07
0
4.89586e-05
0.000254001
0.00376288
0.163033
0.165378
2.67324e-08
6.42136e-08
0
2.81217e-07
2.00782e-05
0
0.0205969
0.000823929
9.50002e-08
3.91052e-08
2.44508e-06
7.3511e-05
9.82216e-05
0.000100176
0.000173257
0.0236125
4.11379e-05
0.0168906
0.0300464
3.33286e-09
0.000121142
4.66319e-07
4.05724e-05
0.0208485
5.52721e-05
0.000176169
3.00715e-05
0
5.44549e-06
5.33856e-05
0.143163
0.0127902
0.179392
1.79148e-07
1.67062e-05
0.0137689
0.00650099
0.024876
0.232539
0.00319649
0.00601299
0.000318222
7.23465e-06
3.48447e-05
0.00013729
5.49756e-05
5.45407e-05
7.97267e-06
0.0258076
0
2.14789e-10
8.23309e-05
0.00189905
0.000504141
0.00034059
1.72379e-07
1.96614e-07
0.000382988
0
3.12343e-05
9.30173e-05
1.18256e-07
6.64371e-09
0.0295643
7.24251e-08
3.97853e-09
1.77944e-06
0.00100661
0
0.0133817
0.00171488
3.38789e-08
4.78876e-08
0.0105417
0
1.66628e-10
0.00999482
0.0164938
0.129418
3.01078e-07
0
0.0278557
7.08585e-05
0.0355561
7.41525e-05
4.46278e-05
1.32988e-10
0
0
8.15849e-05
0.000371752
0.000460446
0.000153512
0.00425788
0.000191828
1.99873e-06
3.1122e-06
1.49548e-09
0
6.70214e-05
1.55188e-06
4.21633e-05
2.57926e-05
0.0220638
0.157969
0.127005
0.0446203
0
0.00336849
0.0703558
0.0524496
0
0.213176
0.0667254
1.39154e-07
5.8887e-07
4.38084e-07
1.18683e-05
3.14627e-07
4.34356e-07
0.000126284
3.92163e-05
6.33458e-07
0.00152088
1.03728e-06
6.56173e-09
9.38291e-08
1.50715e-07
1.65291e-05