# vtk DataFile Version 2.0
Unstructured Grid by M++
ASCII
DATASET UNSTRUCTURED_GRID
POINTS 4072 float
  0.609375   0.843750 0
  0.562500   0.843750 0
  0.531250   0.843750 0
  0.875000   0.828125 0
  0.984375   0.828125 0
  0.953125   0.828125 0
  0.937500   0.828125 0
  0.843750   0.828125 0
  0.812500   0.828125 0
  0.781250   0.828125 0
  0.765625   0.828125 0
  0.734375   0.828125 0
  0.703125   0.828125 0
  0.671875   0.828125 0
  0.640625   0.828125 0
  0.609375   0.828125 0
  0.593750   0.828125 0
  0.562500   0.828125 0
  0.546875   0.828125 0
  0.531250   0.828125 0
  0.515625   0.828125 0
  0.968750   0.812500 0
  0.937500   0.812500 0
  0.921875   0.812500 0
  0.890625   0.812500 0
  0.859375   0.812500 0
  0.828125   0.812500 0
  0.796875   0.812500 0
  0.765625   0.812500 0
  0.750000   0.812500 0
  0.718750   0.812500 0
  0.687500   0.812500 0
  0.656250   0.812500 0
  0.625000   0.812500 0
  0.593750   0.812500 0
  0.578125   0.812500 0
  0.546875   0.812500 0
  0.531250   0.812500 0
  0.515625   0.812500 0
  0.984375   0.796875 0
  0.562500   0.015625 0
  0.953125   0.796875 0
  0.921875   0.796875 0
  0.906250   0.796875 0
  0.875000   0.796875 0
  0.843750   0.796875 0
  0.812500   0.796875 0
  0.781250   0.796875 0
  0.750000   0.796875 0
  0.734375   0.796875 0
  0.703125   0.796875 0
  0.671875   0.796875 0
  0.640625   0.796875 0
  0.609375   0.796875 0
  0.578125   0.796875 0
  0.562500   0.796875 0
  0.531250   0.796875 0
  0.515625   0.796875 0
  0.968750   0.781250 0
  0.546875   0.000000 0
  0.937500   0.781250 0
  0.906250   0.781250 0
  0.890625   0.781250 0
  0.859375   0.781250 0
  0.828125   0.781250 0
  0.796875   0.781250 0
  0.765625   0.781250 0
  0.734375   0.781250 0
  0.718750   0.781250 0
  0.687500   0.781250 0
  0.656250   0.781250 0
  0.625000   0.781250 0
  0.593750   0.781250 0
  0.562500   0.781250 0
  0.546875   0.781250 0
  0.515625   0.781250 0
  0.984375   0.765625 0
  0.953125   0.765625 0
  0.921875   0.765625 0
  0.890625   0.765625 0
  0.875000   0.765625 0
  0.843750   0.765625 0
  0.812500   0.765625 0
  0.781250   0.765625 0
  0.750000   0.765625 0
  0.718750   0.765625 0
  0.703125   0.765625 0
  0.671875   0.765625 0
  0.640625   0.765625 0
  0.609375   0.765625 0
  0.578125   0.765625 0
  0.593750   0.750000 0
  0.562500   0.765625 0
  0.546875   0.765625 0
  0.531250   0.765625 0
  0.562500   0.750000 0
  0.968750   0.750000 0
  0.937500   0.750000 0
  0.906250   0.750000 0
  0.875000   0.750000 0
  0.859375   0.750000 0
  0.828125   0.750000 0
  0.796875   0.750000 0
  0.765625   0.750000 0
  0.734375   0.750000 0
  0.703125   0.750000 0
  0.687500   0.750000 0
  0.671875   0.750000 0
  0.656250   0.750000 0
  0.625000   0.750000 0
  0.546875   0.750000 0
  0.531250   0.750000 0
  0.515625   0.750000 0
  0.562500   0.734375 0
  0.984375   0.734375 0
  0.953125   0.734375 0
  0.921875   0.734375 0
  0.890625   0.734375 0
  0.859375   0.734375 0
  0.843750   0.734375 0
  0.812500   0.734375 0
  0.781250   0.734375 0
  0.750000   0.734375 0
  0.718750   0.734375 0
  0.687500   0.734375 0
  0.671875   0.734375 0
  0.656250   0.734375 0
  0.640625   0.734375 0
  0.546875   0.734375 0
  0.531250   0.734375 0
  0.515625   0.734375 0
  0.562500   0.718750 0
  0.968750   0.718750 0
  0.937500   0.718750 0
  0.906250   0.718750 0
  0.875000   0.718750 0
  0.843750   0.718750 0
  0.796875   0.718750 0
  0.765625   0.718750 0
  0.734375   0.718750 0
  0.703125   0.718750 0
  0.687500   0.718750 0
  0.671875   0.718750 0
  0.656250   0.718750 0
  0.625000   0.718750 0
  0.546875   0.718750 0
  0.531250   0.718750 0
  0.515625   0.718750 0
  0.562500   0.703125 0
  0.953125   0.703125 0
  0.921875   0.703125 0
  0.890625   0.703125 0
  0.859375   0.703125 0
  0.828125   0.703125 0
  0.781250   0.703125 0
  0.750000   0.703125 0
  0.718750   0.703125 0
  0.687500   0.703125 0
  0.656250   0.703125 0
  0.546875   0.703125 0
  0.531250   0.703125 0
  0.515625   0.703125 0
  0.984375   0.687500 0
  0.937500   0.687500 0
  0.921875   0.687500 0
  0.906250   0.687500 0
  0.875000   0.687500 0
  0.843750   0.687500 0
  0.812500   0.687500 0
  0.765625   0.687500 0
  0.734375   0.687500 0
  0.703125   0.687500 0
  0.671875   0.687500 0
  0.640625   0.687500 0
  0.593750   0.687500 0
  0.562500   0.687500 0
  0.546875   0.687500 0
  0.531250   0.687500 0
  0.515625   0.687500 0
  0.968750   0.671875 0
  0.937500   0.671875 0
  0.921875   0.671875 0
  0.906250   0.671875 0
  0.890625   0.671875 0
  0.859375   0.671875 0
  0.828125   0.671875 0
  0.796875   0.671875 0
  0.765625   0.671875 0
  0.750000   0.671875 0
  0.718750   0.671875 0
  0.687500   0.671875 0
  0.656250   0.671875 0
  0.625000   0.671875 0
  0.593750   0.671875 0
  0.578125   0.671875 0
  0.546875   0.671875 0
  0.531250   0.671875 0
  0.515625   0.671875 0
  0.984375   0.656250 0
  0.953125   0.656250 0
  0.937500   0.656250 0
  0.921875   0.656250 0
  0.906250   0.656250 0
  0.875000   0.656250 0
  0.843750   0.656250 0
  0.812500   0.656250 0
  0.781250   0.656250 0
  0.750000   0.656250 0
  0.734375   0.656250 0
  0.703125   0.656250 0
  0.671875   0.656250 0
  0.640625   0.656250 0
  0.609375   0.656250 0
  0.578125   0.656250 0
  0.562500   0.656250 0
  0.531250   0.656250 0
  0.515625   0.656250 0
  0.968750   0.640625 0
  0.937500   0.640625 0
  0.906250   0.640625 0
  0.890625   0.640625 0
  0.859375   0.640625 0
  0.828125   0.640625 0
  0.796875   0.640625 0
  0.765625   0.640625 0
  0.734375   0.640625 0
  0.718750   0.640625 0
  0.687500   0.640625 0
  0.656250   0.640625 0
  0.625000   0.640625 0
  0.593750   0.640625 0
  0.562500   0.640625 0
  0.546875   0.640625 0
  0.515625   0.640625 0
  0.984375   0.625000 0
  0.953125   0.625000 0
  0.921875   0.625000 0
  0.890625   0.625000 0
  0.875000   0.625000 0
  0.843750   0.625000 0
  0.812500   0.625000 0
  0.781250   0.625000 0
  0.750000   0.625000 0
  0.734375   0.625000 0
  0.718750   0.625000 0
  0.703125   0.625000 0
  0.671875   0.625000 0
  0.640625   0.625000 0
  0.609375   0.625000 0
  0.578125   0.625000 0
  0.562500   0.625000 0
  0.546875   0.625000 0
  0.531250   0.625000 0
  0.968750   0.609375 0
  0.937500   0.609375 0
  0.906250   0.609375 0
  0.875000   0.609375 0
  0.859375   0.609375 0
  0.828125   0.609375 0
  0.796875   0.609375 0
  0.765625   0.609375 0
  0.750000   0.609375 0
  0.734375   0.609375 0
  0.718750   0.609375 0
  0.703125   0.609375 0
  0.687500   0.609375 0
  0.656250   0.609375 0
  0.625000   0.609375 0
  0.593750   0.609375 0
  0.562500   0.609375 0
  0.546875   0.609375 0
  0.531250   0.609375 0
  0.515625   0.609375 0
  0.984375   0.593750 0
  0.953125   0.593750 0
  0.921875   0.593750 0
  0.890625   0.593750 0
  0.859375   0.593750 0
  0.843750   0.593750 0
  0.812500   0.593750 0
  0.781250   0.593750 0
  0.750000   0.593750 0
  0.734375   0.593750 0
  0.718750   0.593750 0
  0.687500   0.593750 0
  0.671875   0.593750 0
  0.640625   0.593750 0
  0.609375   0.593750 0
  0.578125   0.593750 0
  0.562500   0.593750 0
  0.546875   0.593750 0
  0.531250   0.593750 0
  0.515625   0.593750 0
  0.968750   0.578125 0
  0.937500   0.578125 0
  0.906250   0.578125 0
  0.875000   0.578125 0
  0.890625   0.562500 0
  0.843750   0.578125 0
  0.828125   0.578125 0
  0.796875   0.578125 0
  0.765625   0.578125 0
  0.734375   0.578125 0
  0.703125   0.578125 0
  0.671875   0.578125 0
  0.656250   0.578125 0
  0.656250   0.562500 0
  0.625000   0.578125 0
  0.640625   0.562500 0
  0.593750   0.578125 0
  0.562500   0.578125 0
  0.546875   0.578125 0
  0.531250   0.578125 0
  0.515625   0.578125 0
  0.859375   0.562500 0
  0.828125   0.562500 0
  0.781250   0.562500 0
  0.750000   0.562500 0
  0.718750   0.562500 0
  0.687500   0.562500 0
  0.609375   0.562500 0
  0.578125   0.562500 0
  0.562500   0.562500 0
  0.546875   0.562500 0
  0.531250   0.562500 0
  0.515625   0.562500 0
  1.000000   0.812500 0
  0.578125   0.031250 0
  0.875000   0.546875 0
  0.625000   0.546875 0
  0.218750   0.000000 0
  0.640625   0.781250 0
  0.828125   0.093750 0
  0.031250   0.531250 0
  0.296875   0.328125 0
  0.296875   0.312500 0
  0.281250   0.312500 0
  0.765625   0.312500 0
  0.031250   0.859375 0
  0.093750   0.265625 0
  0.109375   0.250000 0
  0.187500   0.671875 0
  0.421875   0.640625 0
  0.031250   0.062500 0
  0.140625   0.125000 0
  0.562500   0.906250 0
  0.125000   0.437500 0
  0.203125   0.937500 0
  0.125000   0.421875 0
  0.140625   0.406250 0
  0.093750   0.437500 0
  0.109375   0.421875 0
  0.093750   0.421875 0
  0.109375   0.406250 0
  0.328125   0.125000 0
  0.750000   0.906250 0
  0.328125   0.109375 0
  0.750000   0.890625 0
  0.312500   0.125000 0
  0.734375   0.906250 0
  0.281250   0.343750 0
  0.265625   0.359375 0
  0.500000   0.796875 0
  0.078125   0.015625 0
  0.062500   0.015625 0
  0.484375   0.796875 0
  0.484375   0.781250 0
  0.062500   0.000000 0
  0.015625   0.250000 0
  0.062500   0.046875 0
  0.484375   0.828125 0
  0.484375   0.812500 0
  0.062500   0.031250 0
  0.281250   0.671875 0
  0.062500   0.234375 0
  0.328125   0.765625 0
  0.312500   0.750000 0
  0.015625   0.671875 0
  0.781250   0.187500 0
  0.015625   0.265625 0
  0.453125   0.250000 0
  0.453125   0.234375 0
  0.031250   0.265625 0
  0.046875   0.250000 0
  0.093750   0.015625 0
  0.265625   0.656250 0
  0.734375   0.281250 0
  0.156250   0.015625 0
  0.062500   0.265625 0
  0.046875   0.281250 0
  0.031250   0.281250 0
  0.343750   0.781250 0
  0.328125   0.781250 0
  0.265625   0.687500 0
  0.265625   0.703125 0
  0.156250   0.109375 0
  0.578125   0.890625 0
  0.484375   0.984375 0
  0.062500   0.203125 0
  0.328125   0.718750 0
  0.343750   0.734375 0
  0.343750   0.750000 0
  0.453125   0.500000 0
  0.437500   0.500000 0
  0.234375   0.093750 0
  0.171875   0.375000 0
  0.437500   0.531250 0
  0.468750   0.546875 0
  0.453125   0.546875 0
  0.187500   0.015625 0
  0.187500   0.000000 0
  0.609375   0.781250 0
[...]
CELL_DATA 7648
SCALARS scalar_value float 1
LOOKUP_TABLE default
0.0368666
0.0303353
0.0223953
0.034833
0
0
0
0
0.0290418
0.0215735
0.0195532
0
0
0
0.170893
0.183098
0.167238
0.2085
0.12216
0.117826
0.127938
0.107284
2.58967e-05
0.0185116
0.0195454
0.0261308
0.0161257
0.00175418
0.00135159
1.9685e-05
2.03297e-05
2.97804e-05
1.04832e-05
4.30574e-05
4.2701e-05
5.969e-05
2.25443e-05
5.55085e-06
5.7086e-06
8.23385e-06
0.00154162
0.00306554
0.000572455
0.00030736
0.000225576
1.62742e-06
1.03023e-06
8.55921e-07
0.00128579
2.39013e-06
6.00492e-09
0.00117076
0.0033712
0.00257676
3.48047e-07
0.0239605
1.53542e-07
1.91528e-07
0.00966686
0.0129745
0.0172521
0.044583
0.000730414
1.53922e-08
2.40204e-08
2.87298e-07
3.14354e-07
0.00415445
0.00205144
3.02851e-05
0.264911
0
0.00494371
0.00387704
2.65253e-07
1.01781e-07
0.00545373
1.99751e-07
6.58702e-08
0.00269731
0.0020299
8.21546e-10
2.98862e-05
1.43822e-07
6.2773e-08
2.20092e-05
0.273
0.268501
5.66787e-10
0
0.000205542
2.032e-07
0.124017
0.133151
5.17624e-08
0.0111554
9.54446e-06
0.020066
1.10499e-05
5.6364e-06
0.00303285
0.000934815
0.00256209
0.00171219
0.00220823
0.00198472
0.0857713
7.47929e-08
3.27069e-08
0.000936928
0.0113658
2.42984e-06
1.46737e-06
8.2763e-08
0.164566
5.65845e-08
0.17199
0.149363
0.00167187
0
0
0
5.82229e-08
0.0028425
2.70763e-09
4.11792e-09
2.03698e-09
0.000427523
0.000220616
0.000492878
1.88434e-08
3.15355e-05
6.41651e-08
0
0.272911
0
0.00566288
0.00330435
0.000135035
1.10747e-06
1.1362e-07
7.32326e-07
6.59763e-07
6.25286e-05
5.3275e-07
1.85845e-06
0
0.000627285
2.18001e-09
3.56206e-09
2.1316e-09
0.0342979
0.0406867
0.0486982
0
0
0
9.24096e-05
2.74668e-06
0.00434081
0
0.125609
0.137929
0.00834138
4.58932e-06
2.11456e-06
3.72851e-05
3.96301e-06
0.0289466
0
9.01776e-08
1.68929e-05
2.34041e-07
0
1.96076e-06
7.00411e-05
0
1.95485e-05
0.0128579
1.73356e-05
8.33037e-06
0.00917842
3.60589e-08
0.00289815
5.37366e-09
0.00687267
1.49063e-08
1.06961e-09
2.73682e-09
0.000573283
1.48169e-09
0.000239486
3.17846e-08
1.4182e-05
0.00302531
1.90728e-08
1.87851e-08
1.22816e-08
4.49082e-07
6.12397e-07
5.29075e-07
4.87904e-09
0.0271048
5.99948e-09
6.30404e-09
0.00420987
0.00969946
0
0
0
0.00576063
0.00817377
0.0109467
0.00766833
5.04113e-05
0.152045
0
0
3.25778e-10
0.000109029
4.86185e-05
6.48213e-05
3.46473e-05
0.000449346
8.80828e-05
6.99921e-05
9.05832e-05
6.04648e-05
0.000122596
0.000157279
1.72705e-10
4.07285e-10
0.000184357
0.0351685
3.9368e-10
2.19159e-10
1.58298e-10
1.53312e-10
0.000104518
1.10653e-09
0.000122487
0
0.279922
1.40455e-09
8.58077e-10
0.000107357
0.122741
0.000197267
0.000116177
7.98031e-05
0.000301986
8.50803e-08
0.00740255
0.00791282
0.00583283
0.00604409
0.0986746
1.67429e-09
6.2163e-10
0.100376
0.110179
0.102776
4.65915e-06
0.00526306
0.000806056
0.000146464
0.000103421
1.27265e-05
4.38664e-05
0.00042563
3.60061e-07
0.0248551
0
0
0
0.000449974
0
2.03247e-08
0.274851
0.297728
0.00178773
0.0173915
4.73296e-08
0
0.233881
1.73395e-08
0
0.000457675
4.60435e-07
6.64533e-06
1.24728e-06
0
2.32154e-06
1.91975e-07
0.111879
0.0995998
1.56969e-07
0.0952282
1.96672e-08
1.01482e-07
0.00126776
0.291115
0
6.28585e-09
0.0802027
0.0694668
0.063126
0.0958899
7.85669e-08
0.244764
0.239835
9.2298e-06
0
3.77488e-06
0
0.0027341
0.164908
1.49288e-10
0.153459
0.00405205
0.143351
0.0612683
0.028391
0.000160861
3.82313e-05
0.00423316
0.00154659
0.000132886
7.44772e-05
0.00274189
1.76569e-05
0.028489
2.51699e-06
0.051982
0
0.0595109
0
0
0
0.000703369
0.000420011
0
0
1.65593e-09
0
0.122462
0.0910059
0
3.33267e-07
7.2439e-07
1.1871e-06
8.82582e-07
0.122464
3.46753e-07
0.000263196
1.48855e-06
0.000775063
0
0
0
0.0100112
0.0120412
0.0173283
0.210102
5.90263e-05
6.22594e-10
8.6308e-06
1.37592e-06
2.27816e-05
2.4038e-05
8.51287e-05
0.251022
0.000212181
0.000630567
0.000107911
0.00019951
0
2.54671e-05
5.64079e-07
0.0633416
0.117592
5.42504e-07
0.000304816
1.79945e-06
7.68213e-05
0.0188316
5.94866e-05
0.258515
0.00260334
7.60676e-10
2.50109e-10
0.144657
9.01557e-10
2.98449e-10
7.26784e-09
1.48427e-05
0.000904089
0
0
0.159989
3.79796e-06
3.1718e-08
3.37208e-05
1.07664e-06
1.5129e-05
0.18156
0.000915094
0.00187359
4.07318e-09
7.22638e-06
0
1.2302e-07
1.76934e-07
0
0.164863
1.55754e-07
9.53133e-07
9.5368e-08
0.000485226
0.213175
0.00310304
0.198802
0
0.0225789
0.10974
0.100829
0
0.101922
2.74426e-07
0.0102777
9.07074e-05
0.000797072
0.00826503
0.000192977
0.00906597
0.00575407
0.00258979
8.9157e-09
9.04925e-10
0.00035017
0.00857316
0.000628832
0.0439077
0.0851879
6.81449e-07
0.105884
4.87308e-07
4.98965e-07
0.000372409
0.000182814
3.15529e-10
0.000683919
0.00809536
0.00151048
0.000280734
0.0111448
0.0138125
0.0117502
1.48353e-06
3.29101e-10
2.38203e-09
0.0045984
0.00105215
0.00083872
0
0.00639034
0.00531624
0.000101232
5.35139e-10
0.000341379
0.000143374
1.26884e-05
0.261376
3.3812e-07
1.30096e-05
0.245894
0.0005333
0.00146739
3.50476e-10
0.000383635
1.96993e-09
0.253652
8.17921e-09
2.55119e-09
0.00121698
0.000961827
0.000616818
3.98939e-05
0.000803736
0.000783583
1.65241e-05
0.205216
2.31132e-05
0.25402
4.06106e-07
4.86751e-06
0.000157775
0
0.00228328
0.00284422
0.00213063
1.66308e-07
0.0165045
1.57736e-05
1.07396e-05
3.47287e-07
0.00700268
0.00553979
0.0042964
0.00480067
0
8.60405e-06
0.0144897
0.000168846
4.00864e-06
0.00174528
0.000336468
0.00724879
0.00133743
0.000328243
0.00581436
7.6153e-07
0.000286706
0.000444548
2.50472e-09
0.00494633
0
2.87859e-06
0.00373031
0.0033817
4.61808e-06
0.00266823
0
0.00370619
2.33492e-05
6.27835e-09
1.28753e-05
1.50743e-08
1.1805e-05
1.68098e-05
1.66293e-05
4.67312e-06
0.000204718
0.000142619
7.0051e-10
0.143679
0
0.00689839
1.43258e-09
0.00360693
0.00491421
0
0.0211805
0.0189853
0.0140606
0.00863181
0.011578
5.87688e-06
0.000963301
0.000322801
6.08686e-06
0.00236997
0.000891164
0.00366325
0.00109998
0.00147473
0.00128451
0.00100329
0.00121521
0.000703072
0.0269732
9.77629e-10
0.00480844
5.8703e-06
0.00456102
0.271271
1.84792e-07
0.00187833
0
0.112344
0.0149542
0.0168038
0.00154973
0.00224971
6.26916e-10
0.00105445
0.099033
1.5478e-05
0.000341618
2.04652e-06
9.41813e-07
1.71086e-08
5.39891e-05
0.00534321
0
0.0142009
0.277583
0.000879269
0.00338717
0.000264407
0.0039473
0.00272829
2.32961e-05
0.00214368
0.000592083
0
0.00231486
0
0.255411
0
0
0
7.69157e-07
1.02766e-06
1.14047e-06
0.101306
6.73014e-10
0.0893091
0.00240857
1.5817e-06
1.58982e-06
3.72912e-06
2.53689e-06
0.00255164
0
0.00326048
0.00183448
4.12466e-06
6.54587e-06
0.00395379
0.00561041
1.76269e-09
2.04373e-06
1.30685e-06
0
0.238973
0
0.00024709
0.244797
0.254583
0
0
0.0486299
1.97501e-09
3.23961e-07
0.000111443
0
0.000317827
0.000475629
5.62663e-07
0.000156173
5.90028e-05
6.93231e-05
0.000148375
1.97173e-06
0.256982
0.000125348
0.24385
0.276669
0.191526
0.000582033
0.00709057
0.199131
0.00124721
0.000123564
1.14891e-08
0.001758
0.000222286
3.43439e-09
6.49621e-09
2.72612e-09
0.0245513
0
0.0101503
0
1.78445e-05
0.0793669
0.0686339
0.0534304
1.38521e-07
1.2888e-07
8.7886e-08
0.0090414
8.84559e-09
0.0773611
2.96928e-05
2.4138e-06
5.50855e-05
8.50904e-05
0
3.37951e-05
2.25798e-05
0.00040996
0.0160716
2.66538e-05
1.09818e-05
0.023508
0.0722681
4.1343e-09
5.09723e-06
9.94509e-06
0
0.00161098
0.0643809
0.00244841
0.0464965
0.00120626
0.000875964
1.82487e-08
1.4076e-08
2.15276e-09
1.16173e-09
7.39555e-10
0.000394993
0.00059599
3.34894e-09
2.48288e-09
0.00242506
0.0113194
3.48795e-09
1.3767e-09
0.00251106
0.00194492
0.00192425
2.11109e-08
1.57097e-08
0.000311549
8.76915e-09
0.00545217
0.00573083
0.00432581
1.25399e-07
9.43549e-08
5.36019e-08
0.0447159
0.0318177
0.121979
5.28791e-07
7.16485e-07
3.07572e-07
1.45303e-10
5.21952e-07
2.08804e-07
2.23522e-07
0.0199739
0.00961159
0.271342
0.00627514
0.0251084
0.00149516
5.81879e-07
4.68068e-07
2.77276e-07
0.00255197
0.00509522
0.00322632
0.00364548
1.11223e-06
8.83022e-07
2.01782e-07
2.91164e-10
0.000383417
0.000208062
0.000426415
1.17679e-05
0.000275324
0
1.60119e-07
0.000807761
0.0497444
0.0362956
0.0447887
0.242459
0.244919
0.25686
0.000663581
3.38623e-06
0.000653649
0.000440744
0.00987963
0.00725748
0.158478
0.174876
1.0393e-06
0
4.73138e-06
0.0199967
0.0145502
3.22636e-10
0.0015939
0.00106578
0.00140879
0.140465
0.052188
0
0.174986
0.049144
7.50307e-08
0.000294399
5.08644e-08
7.13073e-05
0.00102058
3.09156e-08
0.057339
0.0179251
0.000375981
0.000507547
0.0084581
0.0741105
0.0491767
0.0122505
1.31438e-07
0.0737838
2.15291e-06
0.0601668
0.052919
0.00131044
0.262478
5.77396e-05
2.44412e-05
1.88033e-05
2.31442e-09
0
0.000822966
0.00040852
0
7.03114e-08
0.0011942
3.91953e-08
4.51416e-05
7.22418e-08
0.00068112
0.000313605
0.000248064
0.000318041
0.276453
0.283265
0
6.28492e-07
9.86902e-07
0.024993
0.00542662
0.00355267
1.10869e-08
0.00132129
9.14994e-10
2.89077e-07
0.0142068
0.0321096
3.39764e-06
0
0.0985291
7.04877e-05
4.51951e-05
0.0721387
5.70016e-05
0.000567358
0.00140421
0.302852
0.0313709
4.52238e-05
0.00703581
2.76755e-05
0
0.00330579
4.87172e-06
0
0.0407662
0.000137191
0.000624415
0.00228036
0.000554022
0.0014201
1.60246e-09
3.27647e-09
1.0866e-09
0.0816635
0.00104016
1.2486e-07
0.000368569
6.40003e-10
0.000841476
0.00187692
0.00111746
2.91881e-10
0.00283304
0.000322143
0.00017509
0.00496638
6.97065e-10
2.30063e-10
0.0367719
0.0276301
0.0403408
2.5329e-09
0.00212539
2.70639e-07
8.42469e-08
0.00401911
0.00250362
0.262592
0.00331228
1.78317e-08
0.000383631
4.16214e-07
0.051204
2.80119e-09
0.053542
0.0378364
0.00705249
0.0397883
0.0234359
0.00938892
5.05645e-08
2.49555e-08
2.55414e-08
0.0242596
8.05048e-07
0.0292304
0.0327223
0.0608414
0
3.09434e-05
0.0405587
0.0219349
0.000177628
2.80996e-06
0.0547056
1.39247e-06
2.23398e-06
0
4.00115e-06
0.000408698
0.00033751
0.000224797
0.000296491
0.0296569
0.000456369
0.0216171
0.0139624
0.000693854
0.000389807
0.0002862
0.000737812
0.00271328
0.000600658
8.4887e-10
3.43914e-08
6.60811e-06
0.000207959
8.41183e-06
0.0265794
0.0439674
5.58975e-05
0.10771
0.0165426
0.00227487
6.07659e-06
3.03613e-06
0.00948614
5.19543e-10
3.19395e-10
0
0
0.000103121
2.5574e-08
3.29922e-08
0.0175135
0.029227
0
1.30777e-10
2.89502e-08
0.000260231
0
0.00150843
3.78877e-07
0
0
0
0
9.82418e-06
0
0
0.0348745
6.3254e-08
4.22966e-08
0.0199318
1.45976e-07
1.12841e-07
0.0153033
5.61798e-08
0.174391
3.66192e-08
0.0125268
1.19577e-05
0.00660775
0.00568733
2.03801e-05
0
0.0101705
1.33626e-09
4.49532e-05
0.0431183
1.89306e-07
0
2.82101e-05
0
1.14218e-05
0.0131498
2.83221e-08
0
0
4.18072e-07
4.35743e-05
0.0223457
0.14594
0
0.107689
0.0048283
0.221537
0.0112871
0.0347576
1.57113e-08
6.79093e-05
0.11538
0.0861855
0.0128119
2.31539e-09
3.40719e-05
0
3.57272e-06
2.36491e-07
1.88197e-06
7.12743e-08
7.47682e-07
0.015543
0.247442
0.00203904
0
0.000740608
6.78759e-06
0.00339609
0.0301492
6.90853e-06
1.28585e-06
0.000153988
0.0061782
0
5.22381e-08
1.87506e-08
0.0630297
0
0.163023
0
1.27399e-08
1.43264e-09
0.00441694
0.0580318
1.8923e-06
0
0.109127
0
0
0.00015208
0.0333516
0.00058455
0.0561566
0.183942
0.0200406
7.6486e-06
0
2.20359e-06
0.0379519
0.00182863
0.00119968
0.0423449
1.01924e-07
0
0
0
2.52992e-07
0
0
0.0222029
3.72747e-08
0.0143985
0
0
0
0
0.022189
0.227117
1.48967e-07
3.39102e-08
3.97665e-06
2.26434e-06
0
0.301445
6.37351e-05
3.0602e-06
0
0.00172665
0.00242
0.123179
6.18993e-06
0.00304009
1.44988e-05
3.07034e-06
3.29909e-05
0.000638838
0.00145408
2.43768e-05
1.18991e-05
0.00228255
0.0003343
0.130619
4.16301e-06
9.62436e-09
0.0146762
2.21371e-06
0.0306199
0.00120228
1.23914e-08
0.047517
1.50037e-09
0.101418
0.000210311
1.68089e-05
8.48901e-05
0.00750098
1.5757e-05
0.202444
5.98553e-07
1.94968e-05
0.0265992
5.05496e-10
0.000999321
2.18668e-06
0.00491162
0.000441054
0
0.265749
0.0552374
1.61612e-05
0.0511018
4.6865e-06
0.0567381
5.1027e-09
0.0122189
1.15888e-05
3.51043e-06
0
0.000308057
0.00123417
7.061e-07
0
5.66491e-05
7.08499e-08
0.0035568
0.00271573
0.00177163
0.00731244
1.57478e-05
0.00204732
0.0254333
9.25902e-10
0.00738593
5.18837e-08
9.85746e-08
0.236331
0.00317024
0.0150559
0.00699633
0.0246169
5.24642e-07
0.00686168
0.0150179
0.0194911
1.88857e-10
0.0186184
0.00616105
2.08771e-07
0.00480481
7.93889e-09
0.00871793
1.67915e-07
6.10065e-07
0.00413295
9.63018e-05
0
0
1.36457e-08
0.0510809
1.51349e-07
8.85929e-08
0.000495466
0.121611
0.00571241
0.00316816
0
4.16468e-07
0.00674409
0.00773661
0.00748475
0.160403
1.07377e-08
0.0766565
0
2.20388e-08
0.0071178
0
1.8388e-10
0.000976493
0.00166798
0.00716676
1.63696e-10
0.00112109
0
0
0.0025574
0
1.9807e-08
0.0378369
0.000557731
0.314943
0.000208867
9.86193e-06
0.00204132
0.0116996
0.00758501
1.63715e-06
8.29726e-07
0.000387823
1.26436e-05
2.83349e-05
0.000123041
1.19419e-06
0.0235933
4.33239e-06
3.66984e-06
4.73976e-08
2.11186e-09
6.87997e-05
0
0.0471223
1.78658e-05
0.00148105
0
0.220334
0.00450953
0.000217162
0.286574
0.318439
6.57436e-08
0.0370668
1.59338e-07
0.269771
0.309061
0.000477551
0.00799264
4.1024e-05
0
0.000190045
6.09206e-06
0
0.00195717
0
0
0.00455814
0
3.61826e-07
0
7.51435e-05
0.00893718
0
3.12144e-06
0.00328697
0.000103499
1.55607e-05
4.92834e-06
0.00041602
1.92848e-08
7.23986e-06
0
0.000558094
0.00163986
0.240093
3.94121e-09
0
0.00655053
3.42513e-07
5.88202e-10
0.0132582
2.8206e-05
0.00405817
4.1467e-06
0
0.230068
0.0104928
3.58905e-07
2.28096e-08
0.0208031
7.11191e-10
1e-09
0
4.24046e-09
4.82116e-08
3.61649e-07
1.23919e-09
0.00534579
0.00423725
0.00325469
0.0108641
4.16734e-08
5.37169e-09
0.00176981
0.00176922
0.0431198
0.000219618
0.000119939
0.0360582
2.45081e-06
0.000185671
4.68509e-06
1.36238e-07
5.13279e-05
8.9231e-06
0.000168531
6.80111e-06
0.0830419
0.144689
0.0637293
1.83158e-05
0.00263901
3.12874e-05
0.000452374
1.57671e-06
0.0017774
1.72844e-05
2.27029e-07
0.00120637
3.7683e-06
0.00169398
0.017431
0
2.53578e-07
0.000867005
0
0.000167999
7.18069e-06
1.84139e-07
4.61899e-10
0.000359045
2.29477e-06
0.000613659
0.00021297
3.05982e-07
0.00884693
2.64724e-10
0.00184223
0.100407
0
0.10341
0
1.97269e-08
0.0231889
0.0863623
0.158367
4.08658e-08
2.89504e-08
0.00608055
0.00233788
0.00107867
0.00804387
1.42233e-10
0
0.00490188
0.138148
0.000304156
0.000205797
0.116888
1.91785e-05
0.0666733
6.89726e-08
2.08245e-10
8.49042e-09
9.9415e-05
2.46652e-10
3.84999e-07
0.00260452
0
0.00973158
0.000504973
3.2488e-06
6.07483e-09
0
2.34257e-10
0.000185887
0.132101
9.76611e-09
0.00165128
0
4.38207e-09
0.000553893
0.00406185
6.06524e-09
0.00152611
0.000131632
3.39711e-06
0.0599048
1.30194e-05
1.13227e-06
0
0.0348139
0
2.14242e-07
4.47257e-07
3.96536e-07
1.69919e-08
0.17372
8.38922e-09
0
2.52282e-08
0
3.77759e-05
3.46511e-06
2.0663e-06
8.58637e-05
2.21034e-06
9.28497e-09
0.11249
0.000572853
0.00697584
0
0.00197942
0.000306863
0.0189951
8.69317e-09
4.69804e-05
1.59545e-08
0.00129421
0.167583
0
0.00424566
0.00179935
1.10128e-09
9.71498e-10
2.13461e-06
3.5082e-06
0
1.6729e-07
0.000649759
4.1769e-06
1.39821e-08
0
0.000644157
0
0.00673123
0.0282404
1.11977e-08
1.64673e-08
0.114253
5.14072e-09
0
0.139701
0.00044569
0.00036899
0.148298
3.89879e-09
2.90242e-10
0.0980238
0.0364409
1.3064e-06
0
4.89597e-07
4.25078e-07
7.92089e-05
0.0794835
0.00115615
0
0.00828387
0
0.00628112
0.000166293
3.73882e-09
0.000211645
3.58418e-06
0.0265753
0.0385268
7.53236e-06
0.076236
0
2.83446e-08
5.78479e-05
5.63056e-09
0.000682997
0
0.154276
2.48639e-05
6.56471e-06
5.98983e-07
0
2.27514e-05
0.000399511
0.169744
0
1.15001e-07
0
0.0633882
0
0
0.0174391
1.44658e-05
0.146693
0.117924
4.95976e-07
1.68351e-07
0
0.00376905
0.000131405
3.95049e-09
9.57908e-07
0
0.0252521
5.54718e-10
0.186938
0.11147
0.0017109
0.254156
7.71422e-07
3.77816e-05
1.38704e-08
0.00132742
0.235625
3.95322e-09
0.000189345
7.36483e-07
2.2563e-10
0.00483001
0
0
6.85765e-07
2.88912e-06
0.0472377
0.000156658
0.000863981
5.1607e-05
0.0263941
0.000581367
0.00570515
0.00412479
0.00153297
0
0.0149341
0.0302312
0.000266613
0.00103835
0
0
1.11346e-08
0.000311448
0.00951867
0
1.86256e-05
1.07838e-10
0.0278779
0.0362002
1.02269e-08
0
0.0264367
1.16886e-07
5.69968e-09
0
0.00504804
0.0144949
7.07163e-08
4.80372e-07
1.8744e-07
1.14054e-07
1.83454e-05
0.000706005
0.000328941
0.217924
0.131817
1.45757e-09
0.0633394
0
0.00177677
0.0278221
0
0.00179048
0
1.14314e-08
0.00720025
1.00123e-06
0.0592203
3.37616e-10
0
0.000605259
0.0554273
0.00707888
0.000109813
1.45842e-08
6.46458e-09
0.0693966
0.000952683
0
0.129904
0.12137
0.000248482
5.88772e-05
2.45532e-05
8.9585e-06
0.000126831
0
0.221102
1.48377e-09
1.94878e-05
1.32776e-06
1.83197e-09
3.79157e-10
0.000137704
2.19873e-06
0
3.67437e-09
0.00024462
0.0458287
0
7.92642e-09
0.000810526
0.0350065
7.34261e-10
0.00067742
0.0121997
7.66772e-07
0.24691
0.000290997
0.0063546
0.0895585
0.000157378
0.0665217
7.63284e-05
0.000757451
2.42315e-05
4.54721e-05
1.32478e-05
0.0111515
0.0181915
2.73315e-05
2.88259e-08
0
1.21666e-06
0.159515
0.000859214
1.43888e-10
1.40728e-09
4.34892e-07
8.37476e-06
4.98856e-10
0.0344255
0.000107393
9.26908e-10
0.000856167
0.00206097
2.40605e-09
0.00760959
1.6441e-06
3.84164e-05
7.29786e-05
2.21788e-10
0.058041
0.000153075
1.78575e-09
0.039482
0.00121942
0.0502565
6.34492e-07
0.0039161
0.000856629
0.000192536
0
1.16072e-06
6.55796e-07
0
0
0.0264493
2.55302e-08
0
0
1.16492e-06
5.26297e-06
6.51867e-05
0.139142
0.00051383
0
0.0747123
6.24186e-06
1.73802e-06
0
4.31881e-07
0.000618122
2.07889e-05
0.0165289
0.0171935
3.58847e-05
1.33459e-09
0.0802062
0.0527714
0
0
3.25717e-06
2.62878e-06
0.000225663
0
0.162364
1.06764e-06
0.000138941
0
1.23351e-05
0
7.14608e-06
0
2.22513e-10
0.00094921
0.0212691
0.00149858
0.00747415
0.24438
0.000747605
3.75289e-06
0
0.266506
4.68503e-05
1.05972e-06
0
0.00125402
4.6298e-07
7.15535e-06
0.00136214
0
0
0.00042689
0.00121597
0
1.03827e-05
6.28726e-06
1.75406e-05
0.00201755
0.0123144
1.61969e-10
0.240427
0.108924
0.141318
5.61409e-10
0.0432458
1.45924e-06
0.0023457
2.00869e-10
2.39578e-10
0.000757115
0.000394951
0.00606019
0.00184235
1.7063e-05
3.00276e-10
0
1.96586e-09
8.19578e-05
0
0.016861
0.00013438
0.071632
7.43192e-10
2.04453e-09
4.81743e-06
0
0.00306587
2.26996e-07
7.56671e-05
0.000133251
0.0249063
6.42262e-07
0.0237687
6.93367e-07
0.0211244
1.25165e-10
4.32441e-06
1.58539e-06
0.0312366
0.0014948
0.0139235
0.0104986
3.28438e-08
0.000312987
0.0149689
6.86228e-08
0.0147375
0
5.4387e-05
6.86168e-10
1.23442e-06
0.000163254
9.03637e-07
2.05702e-06
0
7.73128e-07
0.181272
0.15163
1.13688e-08
0
1.34642e-05
7.30079e-05
0.00122977
0.164009
0.125499
3.29132e-08
8.34298e-08
0
3.99125e-07
4.64994e-06
0
0.0307004
0.00138447
1.23452e-08
3.185e-09
3.45701e-07
5.7924e-05
7.53069e-05
7.93442e-05
0.000143954
0.0132648
3.08051e-05
0.00916148
0.0208413
2.30247e-10
0.000144333
5.59584e-08
2.93859e-05
0.0111908
4.02705e-05
0.000205032
1.99728e-05
0
7.51963e-07
3.75575e-05
0.102299
0.0155869
0.137218
1.90395e-08
1.13185e-05
0.0163171
0.00257888
0.010976
0.250028
0.00126183
0.00849909
7.22557e-05
1.63909e-06
8.2972e-06
8.3122e-05
3.28463e-05
1.48254e-05
1.20286e-06
0.0300134
0
1.58582e-10
5.41222e-05
0.00128482
0.000363951
0.000102614
1.85288e-08
2.16577e-08
0.000650535
0
8.54501e-06
2.91063e-05
1.06594e-08
7.34647e-09
0.014298
8.96616e-08
3.76518e-10
2.30803e-07
0.000888841
0
0.0204439
0.00284113
3.1954e-09
4.70698e-09
0.0049669
0
1.62093e-10
0.00430194
0.0175876
0.17421
3.20389e-08
0
0.0125711
0.000121028
0.0514233
2.19804e-05
1.44989e-05
0
0
0
0.000133289
0.000590223
0.000719774
0.000245277
0.00535577
0.000301579
4.07497e-07
6.67705e-07
1.26802e-10
0
1.53226e-05
2.648e-07
1.89354e-05
4.47621e-05
0.0197962
0.137572
0.171081
0.0638473
0
0.00489498
0.0423215
0.0291981
0
0.208778
0.0391818
1.41592e-08
8.97998e-07
6.66076e-07
8.24233e-06
3.69783e-08
5.12407e-08
9.38839e-05
3.59641e-05
7.88324e-08
0.00235943
1.34926e-07
5.09618e-10
9.82985e-09
1.64497e-08
2.7895e-05
0.00820716
0.000203862
2.98911e-05
0.23156
0.000136805
4.04199e-06
1.94498e-07
0
0.194241
0.172243
0.179329
0
0.000190763
0
0
0.204753
4.8487e-09
1.49648e-08
0.179701
0.00203389
9.45487e-05
0
0
0.000283519
0.00446429
0.193386
6.98852e-05
2.91354e-05
2.43742e-05
0.000178378
8.84964e-10
0.00324566
0.0823747
0.0606375
0.00493181
1.46071e-05
6.73529e-05
0.0664012
0.0968212
0.00423528
7.78934e-09
1.70034e-05
6.94871e-06
1.3599e-05
2.86049e-05