# vtk DataFile Version 2.0
Unstructured Grid by M++
ASCII
DATASET UNSTRUCTURED_GRID
POINTS 4072 float
  0.609375   0.843750 0
  0.562500   0.843750 0
  0.531250   0.843750 0
  0.875000   0.828125 0
  0.984375   0.828125 0
  0.953125   0.828125 0
  0.937500   0.828125 0
  0.843750   0.828125 0
  0.812500   0.828125 0
  0.781250   0.828125 0
  0.765625   0.828125 0
  0.734375   0.828125 0
  0.703125   0.828125 0
  0.671875   0.828125 0
  0.640625   0.828125 0
  0.609375   0.828125 0
  0.593750   0.828125 0
  0.562500   0.828125 0
  0.546875   0.828125 0
  0.531250   0.828125 0
  0.515625   0.828125 0
  0.968750   0.812500 0
  0.937500   0.812500 0
  0.921875   0.812500 0
  0.890625   0.812500 0
  0.859375   0.812500 0
  0.828125   0.812500 0
  0.796875   0.812500 0
  0.765625   0.812500 0
  0.750000   0.812500 0
  0.718750   0.812500 0
  0.687500   0.812500 0
  0.656250   0.812500 0
  0.625000   0.812500 0
  0.593750   0.812500 0
  0.578125   0.812500 0
  0.546875   0.812500 0
  0.531250   0.812500 0
  0.515625   0.812500 0
  0.984375   0.796875 0
  0.562500   0.015625 0
  0.953125   0.796875 0
  0.921875   0.796875 0
  0.906250   0.796875 0
  0.875000   0.796875 0
  0.843750   0.796875 0
  0.812500   0.796875 0
  0.781250   0.796875 0
  0.750000   0.796875 0
  0.734375   0.796875 0
  0.703125   0.796875 0
  0.671875   0.796875 0
  0.640625   0.796875 0
  0.609375   0.796875 0
  0.578125   0.796875 0
  0.562500   0.796875 0
  0.531250   0.796875 0
  0.515625   0.796875 0
  0.968750   0.781250 0
  0.546875   0.000000 0
  0.937500   0.781250 0
  0.906250   0.781250 0
  0.890625   0.781250 0
  0.859375   0.781250 0
  0.828125   0.781250 0
  0.796875   0.781250 0
  0.765625   0.781250 0
  0.734375   0.781250 0
  0.718750   0.781250 0
  0.687500   0.781250 0
  0.656250   0.781250 0
  0.625000   0.781250 0
  0.593750   0.781250 0
  0.562500   0.781250 0
  0.546875   0.781250 0
  0.515625   0.781250 0
  0.984375   0.765625 0
  0.953125   0.765625 0
  0.921875   0.765625 0
  0.890625   0.765625 0
  0.875000   0.765625 0
  0.843750   0.765625 0
  0.812500   0.765625 0
  0.781250   0.765625 0
  0.750000   0.765625 0
  0.718750   0.765625 0
  0.703125   0.765625 0
  0.671875   0.765625 0
  0.640625   0.765625 0
  0.609375   0.765625 0
  0.578125   0.765625 0
  0.593750   0.750000 0
  0.562500   0.765625 0
  0.546875   0.765625 0
  0.531250   0.765625 0
  0.562500   0.750000 0
  0.968750   0.750000 0
  0.937500   0.750000 0
  0.906250   0.750000 0
  0.875000   0.750000 0
  0.859375   0.750000 0
  0.828125   0.750000 0
  0.796875   0.750000 0
  0.765625   0.750000 0
  0.734375   0.750000 0
  0.703125   0.750000 0
  0.687500   0.750000 0
  0.671875   0.750000 0
  0.656250   0.750000 0
  0.625000   0.750000 0
  0.546875   0.750000 0
  0.531250   0.750000 0
  0.515625   0.750000 0
  0.562500   0.734375 0
  0.984375   0.734375 0
  0.953125   0.734375 0
  0.921875   0.734375 0
  0.890625   0.734375 0
  0.859375   0.734375 0
  0.843750   0.734375 0
  0.812500   0.734375 0
  0.781250   0.734375 0
  0.750000   0.734375 0
  0.718750   0.734375 0
  0.687500   0.734375 0
  0.671875   0.734375 0
  0.656250   0.734375 0
  0.640625   0.734375 0
  0.546875   0.734375 0
  0.531250   0.734375 0
  0.515625   0.734375 0
  0.562500   0.718750 0
  0.968750   0.718750 0
  0.937500   0.718750 0
  0.906250   0.718750 0
  0.875000   0.718750 0
  0.843750   0.718750 0
  0.796875   0.718750 0
  0.765625   0.718750 0
  0.734375   0.718750 0
  0.703125   0.718750 0
  0.687500   0.718750 0
  0.671875   0.718750 0
  0.656250   0.718750 0
  0.625000   0.718750 0
  0.546875   0.718750 0
  0.531250   0.718750 0
  0.515625   0.718750 0
  0.562500   0.703125 0
  0.953125   0.703125 0
  0.921875   0.703125 0
  0.890625   0.703125 0
  0.859375   0.703125 0
  0.828125   0.703125 0
  0.781250   0.703125 0
  0.750000   0.703125 0
  0.718750   0.703125 0
  0.687500   0.703125 0
  0.656250   0.703125 0
  0.546875   0.703125 0
  0.531250   0.703125 0
  0.515625   0.703125 0
  0.984375   0.687500 0
  0.937500   0.687500 0
  0.921875   0.687500 0
  0.906250   0.687500 0
  0.875000   0.687500 0
  0.843750   0.687500 0
  0.812500   0.687500 0
  0.765625   0.687500 0
  0.734375   0.687500 0
  0.703125   0.687500 0
  0.671875   0.687500 0
  0.640625   0.687500 0
  0.593750   0.687500 0
  0.562500   0.687500 0
  0.546875   0.687500 0
  0.531250   0.687500 0
  0.515625   0.687500 0
  0.968750   0.671875 0
  0.937500   0.671875 0
  0.921875   0.671875 0
  0.906250   0.671875 0
  0.890625   0.671875 0
  0.859375   0.671875 0
  0.828125   0.671875 0
  0.796875   0.671875 0
  0.765625   0.671875 0
  0.750000   0.671875 0
  0.718750   0.671875 0
  0.687500   0.671875 0
  0.656250   0.671875 0
  0.625000   0.671875 0
  0.593750   0.671875 0
  0.578125   0.671875 0
  0.546875   0.671875 0
  0.531250   0.671875 0
  0.515625   0.671875 0
  0.984375   0.656250 0
  0.953125   0.656250 0
  0.937500   0.656250 0
  0.921875   0.656250 0
  0.906250   0.656250 0
  0.875000   0.656250 0
  0.843750   0.656250 0
  0.812500   0.656250 0
  0.781250   0.656250 0
  0.750000   0.656250 0
  0.734375   0.656250 0
  0.703125   0.656250 0
  0.671875   0.656250 0
  0.640625   0.656250 0
  0.609375   0.656250 0
  0.578125   0.656250 0
  0.562500   0.656250 0
  0.531250   0.656250 0
  0.515625   0.656250 0
  0.968750   0.640625 0
  0.937500   0.640625 0
  0.906250   0.640625 0
  0.890625   0.640625 0
  0.859375   0.640625 0
  0.828125   0.640625 0
  0.796875   0.640625 0
  0.765625   0.640625 0
  0.734375   0.640625 0
  0.718750   0.640625 0
  0.687500   0.640625 0
  0.656250   0.640625 0
  0.625000   0.640625 0
  0.593750   0.640625 0
  0.562500   0.640625 0
  0.546875   0.640625 0
  0.515625   0.640625 0
  0.984375   0.625000 0
  0.953125   0.625000 0
  0.921875   0.625000 0
  0.890625   0.625000 0
  0.875000   0.625000 0
  0.843750   0.625000 0
  0.812500   0.625000 0
  0.781250   0.625000 0
  0.750000   0.625000 0
  0.734375   0.625000 0
  0.718750   0.625000 0
  0.703125   0.625000 0
  0.671875   0.625000 0
  0.640625   0.625000 0
  0.609375   0.625000 0
  0.578125   0.625000 0
  0.562500   0.625000 0
  0.546875   0.625000 0
  0.531250   0.625000 0
  0.968750   0.609375 0
  0.937500   0.609375 0
  0.906250   0.609375 0
  0.875000   0.609375 0
  0.859375   0.609375 0
  0.828125   0.609375 0
  0.796875   0.609375 0
  0.765625   0.609375 0
  0.750000   0.609375 0
  0.734375   0.609375 0
  0.718750   0.609375 0
  0.703125   0.609375 0
  0.687500   0.609375 0
  0.656250   0.609375 0
  0.625000   0.609375 0
  0.593750   0.609375 0
  0.562500   0.609375 0
  0.546875   0.609375 0
  0.531250   0.609375 0
  0.515625   0.609375 0
  0.984375   0.593750 0
  0.953125   0.593750 0
  0.921875   0.593750 0
  0.890625   0.593750 0
  0.859375   0.593750 0
  0.843750   0.593750 0
  0.812500   0.593750 0
  0.781250   0.593750 0
  0.750000   0.593750 0
  0.734375   0.593750 0
  0.718750   0.593750 0
  0.687500   0.593750 0
  0.671875   0.593750 0
  0.640625   0.593750 0
  0.609375   0.593750 0
  0.578125   0.593750 0
  0.562500   0.593750 0
  0.546875   0.593750 0
  0.531250   0.593750 0
  0.515625   0.593750 0
  0.968750   0.578125 0
  0.937500   0.578125 0
  0.906250   0.578125 0
  0.875000   0.578125 0
  0.890625   0.562500 0
  0.843750   0.578125 0
  0.828125   0.578125 0
  0.796875   0.578125 0
  0.765625   0.578125 0
  0.734375   0.578125 0
  0.703125   0.578125 0
  0.671875   0.578125 0
  0.656250   0.578125 0
  0.656250   0.562500 0
  0.625000   0.578125 0
  0.640625   0.562500 0
  0.593750   0.578125 0
  0.562500   0.578125 0
  0.546875   0.578125 0
  0.531250   0.578125 0
  0.515625   0.578125 0
  0.859375   0.562500 0
  0.828125   0.562500 0
  0.781250   0.562500 0
  0.750000   0.562500 0
  0.718750   0.562500 0
  0.687500   0.562500 0
  0.609375   0.562500 0
  0.578125   0.562500 0
  0.562500   0.562500 0
  0.546875   0.562500 0
  0.531250   0.562500 0
  0.515625   0.562500 0
  1.000000   0.812500 0
  0.578125   0.031250 0
  0.875000   0.546875 0
  0.625000   0.546875 0
  0.218750   0.000000 0
  0.640625   0.781250 0
  0.828125   0.093750 0
  0.031250   0.531250 0
  0.296875   0.328125 0
  0.296875   0.312500 0
  0.281250   0.312500 0
  0.765625   0.312500 0
  0.031250   0.859375 0
  0.093750   0.265625 0
  0.109375   0.250000 0
  0.187500   0.671875 0
  0.421875   0.640625 0
  0.031250   0.062500 0
  0.140625   0.125000 0
  0.562500   0.906250 0
  0.125000   0.437500 0
  0.203125   0.937500 0
  0.125000   0.421875 0
  0.140625   0.406250 0
  0.093750   0.437500 0
  0.109375   0.421875 0
  0.093750   0.421875 0
  0.109375   0.406250 0
  0.328125   0.125000 0
  0.750000   0.906250 0
  0.328125   0.109375 0
  0.750000   0.890625 0
  0.312500   0.125000 0
  0.734375   0.906250 0
  0.281250   0.343750 0
  0.265625   0.359375 0
  0.500000   0.796875 0
  0.078125   0.015625 0
  0.062500   0.015625 0
  0.484375   0.796875 0
  0.484375   0.781250 0
  0.062500   0.000000 0
  0.015625   0.250000 0
  0.062500   0.046875 0
  0.484375   0.828125 0
  0.484375   0.812500 0
  0.062500   0.031250 0
  0.281250   0.671875 0
  0.062500   0.234375 0
  0.328125   0.765625 0
  0.312500   0.750000 0
  0.015625   0.671875 0
  0.781250   0.187500 0
  0.015625   0.265625 0
  0.453125   0.250000 0
  0.453125   0.234375 0
  0.031250   0.265625 0
  0.046875   0.250000 0
  0.093750   0.015625 0
  0.265625   0.656250 0
  0.734375   0.281250 0
  0.156250   0.015625 0
  0.062500   0.265625 0
  0.046875   0.281250 0
  0.031250   0.281250 0
  0.343750   0.781250 0
  0.328125   0.781250 0
  0.265625   0.687500 0
  0.265625   0.703125 0
  0.156250   0.109375 0
  0.578125   0.890625 0
  0.484375   0.984375 0
  0.062500   0.203125 0
  0.328125   0.718750 0
  0.343750   0.734375 0
  0.343750   0.750000 0
  0.453125   0.500000 0
  0.437500   0.500000 0
  0.234375   0.093750 0
  0.171875   0.375000 0
  0.437500   0.531250 0
  0.468750   0.546875 0
  0.453125   0.546875 0
  0.187500   0.015625 0
  0.187500   0.000000 0
  0.609375   0.781250 0
[...]
CELL_DATA 7648
SCALARS scalar_value float 1
LOOKUP_TABLE default
0.00897638
0.00686923
0.00444361
0.00839513
0
0
0
0
0.00648232
0.00422506
0.00363263
0
0
0
0.0833269
0.0942592
0.0828119
0.116932
0.210466
0.203096
0.214265
0.188571
6.56097e-06
0.0368332
0.0388095
0.0511284
0.0323212
0.000150485
0.000107867
1.11224e-05
1.08612e-05
1.62833e-05
5.03321e-06
2.25812e-05
2.09815e-05
2.97808e-05
9.9245e-06
2.2217e-06
2.12653e-06
3.14978e-06
0.0033026
0.00650269
5.38465e-05
2.43712e-05
1.70881e-05
2.85481e-08
1.6353e-08
1.25517e-08
0.00128472
4.05954e-08
0
0.000590966
0.00395432
0.00263745
8.06086e-09
0.0473402
2.9651e-09
4.03445e-09
0.0224688
0.0294995
0.038289
0.0766646
0.00047039
1.89558e-10
3.25111e-10
4.38676e-07
4.63967e-07
0.00552123
0.000402898
8.04828e-05
0.240011
0
0.00101808
0.000688342
5.58707e-09
1.14035e-07
0.000621591
2.36075e-07
1.06219e-09
0.000397906
0.00026854
4.87897e-10
7.88893e-05
1.75759e-07
5.84669e-10
9.03076e-06
0.290018
0.289911
0
0
0.000296903
4.44802e-07
0.194593
0.198186
6.59497e-08
0.022054
4.14689e-07
0.0410584
4.38732e-07
1.89363e-07
0.000485577
0.000601692
0.000385106
0.000214435
0.00142959
0.000518407
0.0348987
7.40903e-10
2.96767e-10
0.00239945
0.0241523
1.06003e-07
5.77987e-08
9.34156e-08
0.252341
5.78785e-08
0.249112
0.235147
0.00191946
0
0
0
8.35487e-08
0.00123764
1.33665e-09
1.7771e-09
8.45585e-10
2.46817e-05
1.0732e-05
2.87622e-05
8.80866e-09
1.32983e-06
8.81813e-08
0
0.218295
0
0.000605287
0.00337898
9.81063e-05
1.92631e-08
1.99592e-09
1.15988e-08
9.97963e-09
4.75653e-05
7.8581e-09
3.18448e-08
0
0.000264835
0
0
0
0.0695
0.0798511
0.0935817
0
0
0
6.91667e-05
4.79565e-08
0.00508558
0
0.213196
0.23052
0.00203716
9.11941e-08
3.57824e-08
2.332e-05
7.94332e-08
0.0466382
0
1.31508e-07
3.75153e-07
2.9513e-09
0
8.40747e-08
1.35494e-05
0
5.80139e-07
0.00417975
4.77798e-07
1.95598e-07
0.00258052
3.04312e-10
0.000280223
3.649e-09
0.00474661
1.00377e-10
4.93923e-10
1.44423e-09
3.71217e-05
6.35826e-10
1.28838e-05
4.12229e-10
3.79583e-05
0.00727928
2.23607e-10
2.12966e-10
1.33071e-10
8.12013e-07
1.11873e-06
9.27196e-07
0
0.0257859
0
0
0.00247223
0.0129597
0
0
0
0.0136184
0.0189728
0.0248288
0.0180132
1.4314e-06
0.206465
0
0
1.33821e-10
9.44891e-06
2.96713e-06
2.36858e-06
1.09362e-06
0.000629318
3.49911e-06
9.26395e-05
7.54785e-06
4.46279e-06
5.03969e-06
6.86636e-06
0
0
8.58362e-06
0.0172939
0
0
0
0
4.91718e-06
3.89568e-10
6.36394e-06
0
0.281377
0
0
4.07449e-06
0.062316
9.39773e-06
4.87764e-06
0.000117915
1.65119e-05
1.49605e-09
0.00926365
0.00933559
0.00640886
0.000698227
0.0886974
0
0
0.176514
0.187609
0.173138
1.27072e-07
0.0111365
0.00133778
5.83045e-06
8.73521e-05
3.07082e-07
3.2172e-05
2.23613e-05
3.85534e-09
0.030147
0
0
0
0.000752375
0
2.47729e-10
0.32196
0.333433
0.00453467
0.00272309
6.94418e-10
0
0.18798
1.73187e-10
0
0.000727384
1.63581e-07
2.05414e-07
5.17757e-07
0
8.5731e-08
9.81026e-08
0.0907879
0.0768344
7.01586e-08
0.0666923
2.19011e-08
1.80338e-09
0.000581884
0.246773
0
0
0.147875
0.130924
0.119331
0.124743
1.22057e-09
0.332393
0.335865
3.05133e-07
0
5.64569e-06
0
0.000430873
0.235555
0
0.226467
0.000757706
0.222776
0.117946
0.0058192
9.97822e-06
1.61811e-06
0.00152954
0.000628925
8.09586e-06
3.82022e-06
0.00106247
7.01975e-07
0.0555886
4.56617e-08
0.0141019
0
0.0167709
0
0
0
0.000322651
3.58859e-05
0
0
1.28033e-09
0
0.0471168
0.0299138
0
1.24324e-07
1.79509e-06
2.93946e-06
2.07458e-06
0.208361
5.70933e-09
0.000633691
3.36364e-08
0.00178831
0
0
0
0.00413213
0.00544927
0.00845197
0.130597
2.94839e-06
0
2.90195e-07
1.82361e-06
3.08367e-05
3.58117e-05
4.33276e-06
0.17983
0.000353765
3.69975e-05
0.000172098
8.75271e-06
0
4.03583e-05
1.67861e-08
0.116061
0.106003
9.46485e-09
5.17442e-05
6.56059e-08
2.8426e-06
0.00566645
2.05491e-06
0.204638
0.00625023
0
0
0.0691502
0
0
0
4.69197e-06
0.000778517
0
0
0.0790957
1.16446e-06
2.80242e-10
1.52057e-06
3.8445e-08
5.64508e-07
0.100236
0.00199413
0.000135695
0
1.98592e-06
0
2.15023e-09
3.43082e-09
0
0.103134
3.26996e-09
2.44376e-06
1.8182e-09
0.00123514
0.14637
0.000262881
0.120926
0
0.033246
0.191945
0.179098
0
0.180126
5.53418e-09
0.0211278
5.16008e-06
0.000300531
0.0171849
0.000478516
0.0190383
0.0120446
0.00564751
1.08943e-08
0
2.40324e-05
0.00470125
5.06966e-05
0.0688732
0.153556
1.3868e-08
0.184629
9.34918e-09
1.04217e-08
2.97426e-05
1.20619e-05
0
0.000235945
0.0165067
0.000682653
2.07932e-05
0.022554
0.0277884
0.0238022
4.4986e-08
0
0
0.00292595
0.000106536
8.73321e-05
0
0.0130894
0.0110145
0.000246072
2.49396e-10
0.000795995
6.15211e-06
1.91432e-05
0.263714
7.69349e-07
1.81284e-05
0.244546
0.000289634
0.000181326
1.37284e-10
2.49256e-05
7.12214e-10
0.320074
3.21213e-09
8.3479e-10
9.0095e-05
6.69238e-05
3.85142e-05
1.85467e-06
0.000272048
0.000236606
4.40574e-05
0.306991
6.18895e-05
0.274583
9.4497e-09
1.29953e-05
4.14063e-05
0
0.000334137
0.00456488
0.00340168
2.90281e-09
0.00467741
7.27871e-06
4.84316e-06
4.44769e-09
0.0115121
0.00909809
0.00666613
0.00817441
0
3.81824e-07
0.0313651
0.000448199
1.46766e-07
0.00305595
1.73646e-05
0.0130527
0.00218539
1.85325e-05
0.0104379
1.14135e-08
0.000283568
0.000423096
0
0.00117657
0
6.03343e-08
0.000813578
0.000814673
1.13426e-07
0.00605274
0
0.00840939
1.62175e-06
0
7.46246e-07
0
7.46246e-07
9.83024e-07
1.06425e-06
2.07464e-07
0.000197558
0.000124471
0
0.0833101
0
0.00193731
0
0.000806498
0.00131165
0
0.00706538
0.00621793
0.00312606
0.00166143
0.00230348
1.22239e-07
0.000955994
0.000302075
1.25729e-07
0.00490393
0.0018762
0.00761207
0.000123614
0.000284659
0.000702485
0.000107651
0.000138875
6.74793e-05
0.0391327
0
0.00122652
1.44869e-07
0.0110567
0.230535
1.96683e-09
0.00393174
0
0.181077
0.00359036
0.00420928
0.00394542
0.00563749
0
0.00271392
0.0344833
3.93188e-07
0.000497606
3.48613e-08
1.37136e-08
6.85558e-09
3.46403e-05
0.0104111
0
0.0296506
0.190838
5.62965e-05
0.00672265
1.23455e-05
0.00725452
0.00507883
1.55212e-05
0.00428049
3.0903e-05
0
0.00439643
0
0.189031
0
0
0
1.44395e-08
2.11502e-08
2.3362e-08
0.176728
0
0.158473
0.00350991
5.28732e-07
3.50047e-08
1.44924e-06
8.14536e-07
0.00441575
0
0.00569081
0.00301919
1.98733e-06
3.24614e-06
0.00964009
0.0134544
0
8.78547e-07
4.62441e-07
0
0.263437
0
1.2375e-05
0.156879
0.171094
0
0
0.0163057
0
5.60483e-09
4.56824e-06
0
0.000840488
0.00124856
1.27609e-06
2.48229e-05
2.07378e-06
2.49217e-06
0.000221903
4.99279e-06
0.220008
0.000168323
0.218353
0.201231
0.181686
5.42213e-05
0.000855461
0.204064
0.00169638
5.06991e-05
0
0.00255135
0.000101213
2.72489e-09
5.20462e-09
1.83867e-09
0.0493038
0
0.0224471
0
2.78156e-06
0.0268181
0.0218386
0.0153112
1.58078e-09
1.41105e-09
9.28953e-10
0.00119963
8.27933e-09
0.0290711
8.509e-07
4.22849e-08
1.9034e-06
9.72374e-05
0
1.05124e-06
6.46683e-07
0.000509048
0.0038453
7.76809e-07
2.66894e-07
0.00590874
0.131566
0
1.46529e-07
3.37041e-07
0
0.000131089
0.0452751
0.000233397
0.0366763
0.000107823
7.03334e-05
1.28897e-10
0
0
0
0
2.30026e-05
4.04111e-05
0
0
0.00120082
0.00530365
0
0
0.000249958
0.000179919
0.00018418
1.48108e-10
1.04375e-10
1.64703e-05
0
0.000740571
0.000756531
0.000514222
1.20254e-09
8.57507e-10
4.43167e-10
0.0886898
0.0661978
0.0519574
6.63395e-09
9.60381e-09
3.50198e-09
0
6.61066e-09
2.25261e-09
2.40711e-09
0.0436559
0.00173359
0.298973
0.000956845
0.00483611
0.00105511
7.61863e-09
5.75789e-09
3.09565e-09
0.00638334
0.0123302
0.0079738
0.00897742
3.41651e-08
2.67933e-08
7.28852e-08
0
9.58953e-05
0.000458412
0.000961568
8.95213e-07
0.00043384
0
1.64309e-09
0.000125925
0.0251692
0.0164891
0.0230964
0.182666
0.190704
0.2131
0.000106444
1.10543e-06
9.53516e-05
6.03192e-05
0.00138173
0.000887759
0.166374
0.161079
2.29108e-06
0
1.18728e-05
0.00370987
0.00233678
0
0.000374776
0.00023141
0.00296921
0.184917
0.0879125
0
0.206044
0.0971967
1.2141e-09
0.00077002
7.41976e-10
0.000190059
0.00258028
4.18085e-10
0.0722629
0.00318091
0.000796424
2.8198e-05
0.00112093
0.0754718
0.0548764
0.00192573
4.94343e-08
0.0477526
7.09631e-08
0.0377027
0.0308301
0.000129112
0.245078
1.96992e-06
6.87369e-07
1.32795e-05
0
0
0.00143505
0.000692242
0
8.46837e-10
8.89191e-05
1.68239e-08
2.0578e-06
3.05095e-08
0.000160846
1.64352e-05
1.21458e-05
1.65634e-05
0.280077
0.308156
0
1.52339e-08
2.65766e-08
0.0533043
0.00059556
0.000333748
1.44272e-08
0.00054769
0
6.06251e-09
0.0318894
0.0490096
5.38336e-08
0
0.0408354
2.34025e-06
1.31714e-06
0.0239814
1.87951e-06
0.000875781
0.000116914
0.276561
0.00923446
1.52597e-06
0.00996095
8.38601e-07
0
0.00623367
1.25638e-05
0
0.0823052
5.99054e-06
0.000312749
0.00124661
4.9621e-05
0.000708444
8.66005e-10
1.86308e-09
5.29156e-10
0.116942
0.00057345
2.06451e-07
2.05276e-05
2.93637e-10
6.343e-05
0.00131876
0.00066532
1.47172e-10
0.00137628
2.40306e-05
1.06578e-05
0.00229873
3.62377e-10
1.0241e-10
0.00798043
0.00542527
0.00930795
0
0.000243572
3.64676e-07
1.08258e-07
0.000521129
0.000276671
0.274454
0.000439406
2.21616e-10
0.00100958
1.00458e-06
0.100971
0
0.103533
0.0769141
0.000950066
0.0390747
0.024512
0.00147884
4.68102e-10
1.97911e-10
2.22267e-08
0.0434863
1.11474e-08
0.0516826
0.0600192
0.113106
0
4.826e-06
0.0779663
0.0450555
3.66722e-05
7.97182e-08
0.102279
3.33812e-08
6.68212e-08
0
5.05652e-06
3.25027e-05
2.44639e-05
1.45149e-05
1.60865e-05
0.0162146
2.90402e-05
0.0129354
0.00898204
5.29062e-05
3.33496e-05
0.00013026
6.98399e-05
0.00146052
5.35708e-05
0
3.38471e-08
3.4786e-07
0.000552869
4.89248e-07
0.0524807
0.0830911
4.27743e-06
0.125857
0.00437667
0.000200047
8.25065e-06
4.16747e-06
0.0193795
0
0
0
0
0.000274672
3.12082e-08
1.53498e-08
0.00329086
0.0347648
0
0
2.42744e-10
0.000109381
0
0.000142123
7.92485e-09
0
0
0
0
2.29899e-07
0
0
0.0352057
5.02464e-10
4.59636e-10
0.0212614
1.41366e-09
9.44302e-10
0.0341811
9.08732e-10
0.276902
4.00901e-08
0.00192572
3.46516e-07
0.00198357
0.00188394
7.11653e-07
0
0.00257391
4.15763e-10
1.86646e-06
0.0494501
1.73892e-09
0
8.34409e-07
0
2.70738e-07
0.00366824
4.10951e-10
0
0
1.0564e-08
1.42828e-06
0.00848599
0.0800959
0
0.186781
0.000490376
0.179843
0.00179865
0.0377159
1.05283e-10
5.09625e-06
0.11947
0.0995786
0.00195192
0
8.87849e-05
0
2.11496e-06
1.01262e-07
9.75196e-07
1.24985e-09
3.90697e-07
0.00233621
0.258091
0.000253407
0
0.000198315
2.10455e-07
0.000375431
0.0259141
3.23143e-06
7.58035e-07
0.00012777
0.00104612
0
5.90747e-08
1.53723e-08
0.115994
0
0.137137
0
0
0
0.00209871
0.0927484
2.76906e-08
0
0.189545
0
0
3.20901e-05
0.0561805
0.0015101
0.104106
0.25574
0.00375476
1.43345e-07
0
3.46243e-08
0.0725855
0.00161734
0.000908985
0.0805327
1.40849e-09
0
0
0
3.7654e-09
0
0
0.00737013
2.87132e-10
0.0292643
0
0
0
0
0.0481218
0.159709
2.19194e-09
3.84676e-08
1.08171e-07
9.12389e-07
0
0.314511
4.81175e-06
7.72142e-08
0
0.00403376
0.00263097
0.0541075
1.74919e-07
0.000828117
9.66586e-06
7.86883e-08
9.95712e-07
0.000664686
0.000469091
9.95253e-07
4.07488e-07
0.000685305
0.000699417
0.0581637
1.18286e-07
1.02807e-08
0.00436908
5.84484e-06
0.06018
0.00097427
1.31399e-08
0.0656219
7.07067e-10
0.0375693
8.39306e-06
6.39393e-07
0.000209968
0.00088901
6.80198e-06
0.114794
1.39606e-08
2.99132e-06
0.0551318
0
0.000168766
7.45421e-07
0.000484132
0.00106321
0
0.193675
0.0164879
3.83632e-07
0.0928761
1.33734e-07
0.104897
0
0.00293665
4.21062e-06
1.46069e-06
0
0.00078808
0.00140864
2.57664e-07
0
0.000145744
6.51904e-10
0.0027046
0.000377418
0.00019499
0.00545429
3.50302e-06
0.00496948
0.0518047
0
0.00461994
4.25064e-10
9.60189e-10
0.271198
0.000458794
0.0150383
0.00105348
0.0048538
6.96742e-09
0.00131776
0.00282153
0.0222446
0
0.00308428
0.00124715
2.41941e-09
0.000873739
5.66324e-09
0.00104699
1.80506e-09
8.25815e-07
0.000668488
6.84248e-05
0
0
5.93388e-09
0.0784335
1.65415e-09
8.76475e-10
0.000249226
0.202258
0.00126246
0.000492545
0
5.71352e-09
0.00149045
0.00130156
0.00765509
0.245209
3.79403e-09
0.0633889
0
2.16787e-08
0.00150579
0
0
6.04736e-05
0.00308209
0.00125145
0
7.45175e-05
0
0
0.000222119
0
2.68297e-08
0.0567093
8.17873e-05
0.300337
0.000539852
2.63341e-05
0.00487298
0.026758
0.0072542
2.58843e-08
1.16082e-06
0.000420022
3.11125e-07
8.23435e-07
0.00012039
1.7818e-08
0.00528972
8.63017e-08
6.85654e-08
6.42182e-10
0
2.89921e-06
0
0.0147778
4.84903e-07
0.00192089
0
0.322945
0.00927822
1.02998e-05
0.35586
0.354657
8.23762e-10
0.0715472
2.6164e-09
0.357875
0.36668
0.00110104
0.0125945
1.34038e-06
0
4.91505e-05
1.91496e-07
0
0.000264993
0
0
0.000859528
0
5.78865e-09
0
2.81728e-06
0.00115874
0
1.0997e-07
0.00508613
4.3213e-06
5.33604e-06
1.53182e-06
5.21041e-05
2.57755e-10
1.90503e-05
0
0.000100274
0.00020829
0.144081
2.4358e-09
0
0.000790414
4.31166e-07
3.83135e-10
0.00449754
7.52828e-05
0.00946059
2.35948e-06
0
0.152085
0.0014733
4.74685e-07
2.48453e-08
0.0039949
5.28171e-10
6.88833e-10
0
2.99738e-09
6.76438e-10
5.09386e-07
9.74927e-10
0.00473501
0.000625456
0.000398592
0.00941746
1.54446e-08
4.47813e-09
0.000137786
0.000139232
0.0211919
1.04748e-05
4.87804e-06
0.0152042
3.52719e-06
0.000238454
1.86177e-07
2.82355e-09
0.000135624
1.37716e-05
0.000384007
2.89687e-07
0.0571755
0.208907
0.0506383
4.85348e-05
0.00610338
8.17487e-05
0.00111146
2.27365e-06
0.000235973
1.88687e-06
2.84e-07
0.000300776
9.94643e-08
0.000381218
0.00678372
0
2.84004e-09
0.000170078
0
1.66436e-05
1.85296e-05
1.94683e-09
1.42437e-10
7.96254e-05
5.5016e-08
0.000127024
0.000180885
3.94742e-09
0.0124735
1.8694e-10
0.00015282
0.0679658
0
0.0364299
0
1.6992e-10
0.00921248
0.153363
0.257218
3.41015e-10
2.28001e-10
0.00113725
0.00206623
0.000101802
0.00545026
0
0
0.0072879
0.0756291
1.46504e-05
8.72277e-06
0.0525413
1.00604e-06
0.10404
1.12892e-07
0
0
4.07714e-06
1.93409e-10
4.83426e-09
0.000549001
0
0.0217217
2.84322e-05
1.18685e-07
0
0
0
1.08248e-05
0.222079
0
0.000122871
0
0
0.000609429
0.00855578
2.51841e-09
0.000554619
8.19639e-06
1.75033e-07
0.0440204
7.16117e-06
1.56866e-06
0
0.070913
0
2.07801e-09
5.2317e-09
4.22864e-09
1.04036e-10
0.189521
3.69613e-09
0
1.62631e-10
0
8.00167e-06
1.17062e-07
5.55343e-08
1.82467e-05
1.08963e-06
0
0.0532206
3.16605e-05
0.0142967
0
0.00436759
0.000399941
0.0104597
0
0.000118677
0
9.2684e-05
0.117932
0
0.000481928
0.000147975
6.3249e-10
0
3.09113e-08
5.64805e-08
0
1.52033e-09
4.20488e-05
1.69023e-07
0
0
0.00136626
0
0.0138409
0.0112615
0
1.17758e-10
0.196301
0
0
0.0994423
2.51297e-05
1.89027e-05
0.0961413
0
0
0.0375038
0.0082249
2.00299e-08
0
6.79639e-07
5.24982e-09
4.61398e-05
0.0715856
0.00250108
0
0.00404676
0
0.00933364
7.76433e-06
1.36814e-09
1.40644e-05
6.24624e-08
0.00564839
0.0101363
1.62235e-07
0.0255517
0
3.29389e-10
0.000154881
0
4.14081e-05
0
0.0960932
1.03357e-06
1.95621e-07
2.54138e-07
0
9.38655e-07
0.000125029
0.100459
0
1.80804e-07
0
0.0894378
0
0
0.00604265
7.67855e-07
0.242068
0.154757
8.72521e-09
2.30572e-09
0
0.00638626
5.59036e-06
0
1.3836e-08
0
0.00685372
0
0.289989
0.193743
0.000147155
0.279724
1.80395e-08
6.50983e-06
0
0.00334284
0.163733
0
9.23228e-06
1.55858e-06
0
0.000503123
0
0
8.98936e-07
1.05696e-07
0.0331971
6.89595e-06
0.00116741
1.72687e-06
0.0100206
0.000428015
0.00119147
0.000714445
0.0011608
0
0.0246224
0.0118235
1.37918e-05
0.00155889
0
0
1.25815e-10
0.00035606
0.00279289
0
5.50387e-06
0
0.0533442
0.0698738
0
0
0.00967447
1.96469e-09
5.77455e-09
0
0.00261581
0.00374157
1.03203e-09
9.18406e-07
3.49229e-09
1.84871e-09
2.23534e-06
0.00176401
0.000137686
0.274292
0.210439
0
0.116629
0
0.00167534
0.0575095
0
0.00116854
0
9.17555e-09
0.00102074
1.35592e-08
0.0695497
1.10713e-10
0
0.000147265
0.0802007
0.00316146
0.000291664
1.33352e-10
0
0.0427079
6.58408e-05
0
0.176767
0.148281
0.000654233
4.26442e-06
7.35205e-06
2.48075e-06
1.13914e-05
0
0.32471
0
3.30709e-06
3.72899e-08
0
0
0.000367377
7.13783e-08
0
0
1.18725e-05
0.021945
0
0
5.55034e-05
0.00754358
0
0.000209239
0.00644853
2.13242e-08
0.154502
1.4923e-05
0.0151489
0.0325146
5.84795e-06
0.0209061
2.79542e-06
0.000904332
1.54551e-05
3.15117e-06
3.24307e-07
0.00247939
0.0056034
7.83447e-07
3.52256e-10
0
1.79893e-08
0.0942813
5.31928e-05
0
0
9.73261e-09
2.23917e-05
0
0.0148947
4.28641e-06
4.73579e-10
5.83913e-05
0.00123531
0
0.00428294
4.61301e-08
7.35912e-06
0.000182482
0
0.100874
1.00949e-05
0
0.0653507
0.000218694
0.0650357
7.22649e-09
0.00146293
0.0013307
0.000101449
0
1.53612e-08
7.56532e-09
0
0
0.0233592
1.84931e-10
0
0
1.69953e-08
1.05445e-07
4.73904e-05
0.0682993
2.66806e-05
0
0.0231703
1.32157e-07
2.79233e-08
0
2.4242e-07
0.000776821
5.74707e-07
0.00546157
0.00641836
1.1649e-06
0
0.143584
0.0139709
0
0
5.90831e-08
4.52487e-08
0.000181306
0
0.262531
1.54139e-08
9.53e-05
0
7.13861e-06
0
4.20043e-06
0
0
0.000178456
0.015888
0.000133978
0.000852733
0.208585
6.75617e-05
1.90908e-06
0
0.261003
0.000123868
4.67444e-07
0
0.000140618
2.07546e-07
1.53394e-07
0.00128056
0
0
2.18826e-05
0.00213591
0
4.92156e-07
2.58045e-07
3.58453e-06
0.000211174
0.00972538
1.02662e-10
0.27774
0.188342
0.234521
0
0.0802184
2.24598e-08
0.00193829
1.09908e-10
1.50071e-10
5.27036e-05
5.9774e-05
0.00624978
0.00199789
4.41586e-07
1.31729e-10
0
1.05232e-09
2.66472e-06
0
0.0318791
5.0975e-06
0.022929
2.32652e-10
1.78399e-09
1.88849e-07
0
0.00380163
3.69433e-09
1.11564e-05
0.000339082
0.00457889
8.40937e-09
0.00434884
9.17373e-09
0.00360139
0
2.26894e-07
2.47228e-08
0.00629616
0.00305134
0.0273747
0.00845295
2.56294e-10
7.12324e-05
0.0139296
6.05931e-10
0.0322298
0
1.9364e-06
0
4.13407e-08
0.000433616
3.12551e-07
4.9502e-08
0
1.46727e-06
0.151315
0.112369
0
0
6.7051e-07
3.98331e-06
8.80865e-05
0.132491
0.0550153
4.00608e-08
1.14877e-07
0
6.74574e-07
1.67435e-07
0
0.0613739
0.00351956
1.3973e-10
0
4.66869e-09
2.69692e-05
3.29749e-05
3.73687e-05
7.52969e-05
0.00294645
1.28475e-05
0.00187962
0.007227
0
0.00017006
5.51528e-10
1.13823e-05
0.00226521
1.57973e-05
0.000229206
6.42138e-06
0
9.74631e-09
1.3637e-05
0.0396934
0.0192535
0.0619993
1.48892e-10
3.80281e-06
0.0189183
0.00027379
0.00144195
0.236367
0.000134001
0.0147444
2.47592e-06
5.47822e-08
3.14847e-07
2.16847e-05
8.36999e-06
7.32137e-07
1.84793e-08
0.0333443
0
0
1.692e-05
0.000425614
0.000139161
6.16074e-06
1.48413e-10
1.8135e-10
0.0016828
0
4.15964e-07
1.85876e-06
0
7.04736e-09
0.00231017
1.11028e-07
0
2.62486e-09
0.000531494
0
0.0423022
0.00704422
0
0
0.000758451
0
1.14883e-10
0.000543239
0.0160496
0.276595
2.48945e-10
0
0.00173096
0.00031627
0.0965429
1.26055e-06
1.01332e-06
0
0
0
0.000313999
0.00131609
0.00155481
0.000552406
0.00710936
0.00065713
1.11451e-08
2.01722e-08
0
0
5.33704e-07
5.1432e-09
2.60852e-06
0.000119201
0.0122377
0.0792668
0.27249
0.116812
0
0.00906821
0.0108935
0.00637891
0
0.15853
0.009673
1.01888e-10
1.79943e-06
1.32588e-06
2.92491e-06
3.51206e-10
4.89836e-10
3.83787e-05
2.365e-05
8.33722e-10
0.00505468
1.55224e-09
0
0
1.35395e-10
7.088e-05
0.0155333
8.81361e-06
1.78874e-06
0.17767
6.77514e-06
2.53534e-06
3.34417e-07
0
0.208607
0.165717
0.187588
0
0.000499309
0
0
0.308983
5.67246e-09
1.84851e-08
0.101105
0.00265022
0.000242339
0
0
2.16196e-05
0.000457322
0.174829
2.18787e-05
1.54438e-06
1.06468e-06
5.65288e-05
0
0.000315842
0.0648869
0.0543471
0.000563315
7.53302e-07
3.71782e-06
0.121335
0.170445
0.0102041
0
4.5433e-05
3.0603e-07
3.27392e-06
1.73263e-06
2.66843e-07
0.244364
0.29187
1.66933e-08
0.00189549
0.000605643
0
2.47155e-09
0.0745487
0.000343422
0
0
4.06756e-08
0
0
0.016494
4.63178e-10
6.95608e-10
0
0
0.252253
2.72047e-09
0.0355264
1.75096e-05
1.67201e-05
0
4.44106e-05
0
9.44619e-06
2.13894e-09
8.94008e-05
1.1865e-05
0.00282676
1.54708e-10
1.47114e-05
0.293834
2.86547e-10
2.07441e-05
0
4.41047e-06
3.01137e-10
3.32857e-06
6.45139e-06
0.0114437
8.16263e-10
2.93822e-06
3.0748e-05
2.11168e-09
2.36984e-06
0.00196759
0
2.87943e-06
1.07266e-10
0.314799
0
4.09925e-06
9.17323e-06
0
0.284496
0
0.000672364
0
0.000342349
0.261441
0
0.23547
0
0.260769
0
0
1.61317e-07
3.4044e-07
0.000795939
0
0.0336943
4.5662e-06
0
0.00180945
1.69872e-07
0
0
1.28859e-05
0
0.0163065
0.00840727
0.00242193
0
0.00514544
0
2.3941e-06
0
1.13369e-10
0
0.00171803
2.92026e-06
0.00113759
4.25838e-05
3.67725e-05
0.0208356
2.40705e-06
6.62562e-06
4.81986e-05
0
1.09195e-07
2.19631e-07
0.00396745
0
0.00876971
1.92727e-07
0
0
1.49461e-09
2.02866e-05
1.33435e-07
6.5472e-06
0
0.0080187
0
0.0211048
0.000334926
0.000976989
4.45994e-05
0.0367808
2.18529e-07
0
0
4.00858e-07