# vtk DataFile Version 2.0
Unstructured Grid by M++
ASCII
DATASET UNSTRUCTURED_GRID
POINTS 4072 float
  0.609375   0.843750 0
  0.562500   0.843750 0
  0.531250   0.843750 0
  0.875000   0.828125 0
  0.984375   0.828125 0
  0.953125   0.828125 0
  0.937500   0.828125 0
  0.843750   0.828125 0
  0.812500   0.828125 0
  0.781250   0.828125 0
  0.765625   0.828125 0
  0.734375   0.828125 0
  0.703125   0.828125 0
  0.671875   0.828125 0
  0.640625   0.828125 0
  0.609375   0.828125 0
  0.593750   0.828125 0
  0.562500   0.828125 0
  0.546875   0.828125 0
  0.531250   0.828125 0
  0.515625   0.828125 0
  0.968750   0.812500 0
  0.937500   0.812500 0
  0.921875   0.812500 0
  0.890625   0.812500 0
  0.859375   0.812500 0
  0.828125   0.812500 0
  0.796875   0.812500 0
  0.765625   0.812500 0
  0.750000   0.812500 0
  0.718750   0.812500 0
  0.687500   0.812500 0
  0.656250   0.812500 0
  0.625000   0.812500 0
  0.593750   0.812500 0
  0.578125   0.812500 0
  0.546875   0.812500 0
  0.531250   0.812500 0
  0.515625   0.812500 0
  0.984375   0.796875 0
  0.562500   0.015625 0
  0.953125   0.796875 0
  0.921875   0.796875 0
  0.906250   0.796875 0
  0.875000   0.796875 0
  0.843750   0.796875 0
  0.812500   0.796875 0
  0.781250   0.796875 0
  0.750000   0.796875 0
  0.734375   0.796875 0
  0.703125   0.796875 0
  0.671875   0.796875 0
  0.640625   0.796875 0
  0.609375   0.796875 0
  0.578125   0.796875 0
  0.562500   0.796875 0
  0.531250   0.796875 0
  0.515625   0.796875 0
  0.968750   0.781250 0
  0.546875   0.000000 0
  0.937500   0.781250 0
  0.906250   0.781250 0
  0.890625   0.781250 0
  0.859375   0.781250 0
  0.828125   0.781250 0
  0.796875   0.781250 0
  0.765625   0.781250 0
  0.734375   0.781250 0
  0.718750   0.781250 0
  0.687500   0.781250 0
  0.656250   0.781250 0
  0.625000   0.781250 0
  0.593750   0.781250 0
  0.562500   0.781250 0
  0.546875   0.781250 0
  0.515625   0.781250 0
  0.984375   0.765625 0
  0.953125   0.765625 0
  0.921875   0.765625 0
  0.890625   0.765625 0
  0.875000   0.765625 0
  0.843750   0.765625 0
  0.812500   0.765625 0
  0.781250   0.765625 0
  0.750000   0.765625 0
  0.718750   0.765625 0
  0.703125   0.765625 0
  0.671875   0.765625 0
  0.640625   0.765625 0
  0.609375   0.765625 0
  0.578125   0.765625 0
  0.593750   0.750000 0
  0.562500   0.765625 0
  0.546875   0.765625 0
  0.531250   0.765625 0
  0.562500   0.750000 0
  0.968750   0.750000 0
  0.937500   0.750000 0
  0.906250   0.750000 0
  0.875000   0.750000 0
  0.859375   0.750000 0
  0.828125   0.750000 0
  0.796875   0.750000 0
  0.765625   0.750000 0
  0.734375   0.750000 0
  0.703125   0.750000 0
  0.687500   0.750000 0
  0.671875   0.750000 0
  0.656250   0.750000 0
  0.625000   0.750000 0
  0.546875   0.750000 0
  0.531250   0.750000 0
  0.515625   0.750000 0
  0.562500   0.734375 0
  0.984375   0.734375 0
  0.953125   0.734375 0
  0.921875   0.734375 0
  0.890625   0.734375 0
  0.859375   0.734375 0
  0.843750   0.734375 0
  0.812500   0.734375 0
  0.781250   0.734375 0
  0.750000   0.734375 0
  0.718750   0.734375 0
  0.687500   0.734375 0
  0.671875   0.734375 0
  0.656250   0.734375 0
  0.640625   0.734375 0
  0.546875   0.734375 0
  0.531250   0.734375 0
  0.515625   0.734375 0
  0.562500   0.718750 0
  0.968750   0.718750 0
  0.937500   0.718750 0
  0.906250   0.718750 0
  0.875000   0.718750 0
  0.843750   0.718750 0
  0.796875   0.718750 0
  0.765625   0.718750 0
  0.734375   0.718750 0
  0.703125   0.718750 0
  0.687500   0.718750 0
  0.671875   0.718750 0
  0.656250   0.718750 0
  0.625000   0.718750 0
  0.546875   0.718750 0
  0.531250   0.718750 0
  0.515625   0.718750 0
  0.562500   0.703125 0
  0.953125   0.703125 0
  0.921875   0.703125 0
  0.890625   0.703125 0
  0.859375   0.703125 0
  0.828125   0.703125 0
  0.781250   0.703125 0
  0.750000   0.703125 0
  0.718750   0.703125 0
  0.687500   0.703125 0
  0.656250   0.703125 0
  0.546875   0.703125 0
  0.531250   0.703125 0
  0.515625   0.703125 0
  0.984375   0.687500 0
  0.937500   0.687500 0
  0.921875   0.687500 0
  0.906250   0.687500 0
  0.875000   0.687500 0
  0.843750   0.687500 0
  0.812500   0.687500 0
  0.765625   0.687500 0
  0.734375   0.687500 0
  0.703125   0.687500 0
  0.671875   0.687500 0
  0.640625   0.687500 0
  0.593750   0.687500 0
  0.562500   0.687500 0
  0.546875   0.687500 0
  0.531250   0.687500 0
  0.515625   0.687500 0
  0.968750   0.671875 0
  0.937500   0.671875 0
  0.921875   0.671875 0
  0.906250   0.671875 0
  0.890625   0.671875 0
  0.859375   0.671875 0
  0.828125   0.671875 0
  0.796875   0.671875 0
  0.765625   0.671875 0
  0.750000   0.671875 0
  0.718750   0.671875 0
  0.687500   0.671875 0
  0.656250   0.671875 0
  0.625000   0.671875 0
  0.593750   0.671875 0
  0.578125   0.671875 0
  0.546875   0.671875 0
  0.531250   0.671875 0
  0.515625   0.671875 0
  0.984375   0.656250 0
  0.953125   0.656250 0
  0.937500   0.656250 0
  0.921875   0.656250 0
  0.906250   0.656250 0
  0.875000   0.656250 0
  0.843750   0.656250 0
  0.812500   0.656250 0
  0.781250   0.656250 0
  0.750000   0.656250 0
  0.734375   0.656250 0
  0.703125   0.656250 0
  0.671875   0.656250 0
  0.640625   0.656250 0
  0.609375   0.656250 0
  0.578125   0.656250 0
  0.562500   0.656250 0
  0.531250   0.656250 0
  0.515625   0.656250 0
  0.968750   0.640625 0
  0.937500   0.640625 0
  0.906250   0.640625 0
  0.890625   0.640625 0
  0.859375   0.640625 0
  0.828125   0.640625 0
  0.796875   0.640625 0
  0.765625   0.640625 0
  0.734375   0.640625 0
  0.718750   0.640625 0
  0.687500   0.640625 0
  0.656250   0.640625 0
  0.625000   0.640625 0
  0.593750   0.640625 0
  0.562500   0.640625 0
  0.546875   0.640625 0
  0.515625   0.640625 0
  0.984375   0.625000 0
  0.953125   0.625000 0
  0.921875   0.625000 0
  0.890625   0.625000 0
  0.875000   0.625000 0
  0.843750   0.625000 0
  0.812500   0.625000 0
  0.781250   0.625000 0
  0.750000   0.625000 0
  0.734375   0.625000 0
  0.718750   0.625000 0
  0.703125   0.625000 0
  0.671875   0.625000 0
  0.640625   0.625000 0
  0.609375   0.625000 0
  0.578125   0.625000 0
  0.562500   0.625000 0
  0.546875   0.625000 0
  0.531250   0.625000 0
  0.968750   0.609375 0
  0.937500   0.609375 0
  0.906250   0.609375 0
  0.875000   0.609375 0
  0.859375   0.609375 0
  0.828125   0.609375 0
  0.796875   0.609375 0
  0.765625   0.609375 0
  0.750000   0.609375 0
  0.734375   0.609375 0
  0.718750   0.609375 0
  0.703125   0.609375 0
  0.687500   0.609375 0
  0.656250   0.609375 0
  0.625000   0.609375 0
  0.593750   0.609375 0
  0.562500   0.609375 0
  0.546875   0.609375 0
  0.531250   0.609375 0
  0.515625   0.609375 0
  0.984375   0.593750 0
  0.953125   0.593750 0
  0.921875   0.593750 0
  0.890625   0.593750 0
  0.859375   0.593750 0
  0.843750   0.593750 0
  0.812500   0.593750 0
  0.781250   0.593750 0
  0.750000   0.593750 0
  0.734375   0.593750 0
  0.718750   0.593750 0
  0.687500   0.593750 0
  0.671875   0.593750 0
  0.640625   0.593750 0
  0.609375   0.593750 0
  0.578125   0.593750 0
  0.562500   0.593750 0
  0.546875   0.593750 0
  0.531250   0.593750 0
  0.515625   0.593750 0
  0.968750   0.578125 0
  0.937500   0.578125 0
  0.906250   0.578125 0
  0.875000   0.578125 0
  0.890625   0.562500 0
  0.843750   0.578125 0
  0.828125   0.578125 0
  0.796875   0.578125 0
  0.765625   0.578125 0
  0.734375   0.578125 0
  0.703125   0.578125 0
  0.671875   0.578125 0
  0.656250   0.578125 0
  0.656250   0.562500 0
  0.625000   0.578125 0
  0.640625   0.562500 0
  0.593750   0.578125 0
  0.562500   0.578125 0
  0.546875   0.578125 0
  0.531250   0.578125 0
  0.515625   0.578125 0
  0.859375   0.562500 0
  0.828125   0.562500 0
  0.781250   0.562500 0
  0.750000   0.562500 0
  0.718750   0.562500 0
  0.687500   0.562500 0
  0.609375   0.562500 0
  0.578125   0.562500 0
  0.562500   0.562500 0
  0.546875   0.562500 0
  0.531250   0.562500 0
  0.515625   0.562500 0
  1.000000   0.812500 0
  0.578125   0.031250 0
  0.875000   0.546875 0
  0.625000   0.546875 0
  0.218750   0.000000 0
  0.640625   0.781250 0
  0.828125   0.093750 0
  0.031250   0.531250 0
  0.296875   0.328125 0
  0.296875   0.312500 0
  0.281250   0.312500 0
  0.765625   0.312500 0
  0.031250   0.859375 0
  0.093750   0.265625 0
  0.109375   0.250000 0
  0.187500   0.671875 0
  0.421875   0.640625 0
  0.031250   0.062500 0
  0.140625   0.125000 0
  0.562500   0.906250 0
  0.125000   0.437500 0
  0.203125   0.937500 0
  0.125000   0.421875 0
  0.140625   0.406250 0
  0.093750   0.437500 0
  0.109375   0.421875 0
  0.093750   0.421875 0
  0.109375   0.406250 0
  0.328125   0.125000 0
  0.750000   0.906250 0
  0.328125   0.109375 0
  0.750000   0.890625 0
  0.312500   0.125000 0
  0.734375   0.906250 0
  0.281250   0.343750 0
  0.265625   0.359375 0
  0.500000   0.796875 0
  0.078125   0.015625 0
  0.062500   0.015625 0
  0.484375   0.796875 0
  0.484375   0.781250 0
  0.062500   0.000000 0
  0.015625   0.250000 0
  0.062500   0.046875 0
  0.484375   0.828125 0
  0.484375   0.812500 0
  0.062500   0.031250 0
  0.281250   0.671875 0
  0.062500   0.234375 0
  0.328125   0.765625 0
  0.312500   0.750000 0
  0.015625   0.671875 0
  0.781250   0.187500 0
  0.015625   0.265625 0
  0.453125   0.250000 0
  0.453125   0.234375 0
  0.031250   0.265625 0
  0.046875   0.250000 0
  0.093750   0.015625 0
  0.265625   0.656250 0
  0.734375   0.281250 0
  0.156250   0.015625 0
  0.062500   0.265625 0
  0.046875   0.281250 0
  0.031250   0.281250 0
  0.343750   0.781250 0
  0.328125   0.781250 0
  0.265625   0.687500 0
  0.265625   0.703125 0
  0.156250   0.109375 0
  0.578125   0.890625 0
  0.484375   0.984375 0
  0.062500   0.203125 0
  0.328125   0.718750 0
  0.343750   0.734375 0
  0.343750   0.750000 0
  0.453125   0.500000 0
  0.437500   0.500000 0
  0.234375   0.093750 0
  0.171875   0.375000 0
  0.437500   0.531250 0
  0.468750   0.546875 0
  0.453125   0.546875 0
  0.187500   0.015625 0
  0.187500   0.000000 0
  0.609375   0.781250 0
[...]
CELL_DATA 7648
SCALARS scalar_value float 1
LOOKUP_TABLE default
0.00279036
0.00203446
0.00119881
0.00260347
0
0
0
0
0.00190454
0.00113135
0.000932987
0
0
0
0.0423916
0.0500254
0.042872
0.0660528
0.27351
0.263724
0.271566
0.248882
2.06579e-06
0.054403
0.0572458
0.0746908
0.0479508
2.23641e-05
1.52621e-05
6.25405e-06
5.85151e-06
8.92926e-06
2.51005e-06
1.19972e-05
1.06142e-05
1.52409e-05
4.64093e-06
9.724e-07
8.83156e-07
1.33402e-06
0.00506062
0.00993827
8.46812e-06
3.42176e-06
2.33342e-06
1.53066e-09
8.24484e-10
6.00798e-10
0.00110055
2.1185e-09
0
0.000304175
0.00382224
0.00230001
5.11244e-10
0.0695658
1.67845e-10
2.41529e-10
0.0367642
0.0475069
0.0606483
0.0989282
0.000289988
0
0
5.07658e-07
5.22623e-07
0.00586792
0.000105338
0.000141872
0.194727
0
0.000273673
0.000166901
3.33626e-10
1.04749e-07
0.000111446
2.25727e-07
0
8.5213e-05
5.35037e-05
2.80141e-10
0.000137952
1.71487e-07
0
4.00951e-06
0.267655
0.269651
0
0
0.000334607
6.77224e-07
0.233866
0.22872
6.6359e-08
0.0317667
3.98262e-08
0.0617266
3.97731e-08
1.54129e-08
0.0001098
0.000370838
8.32393e-05
4.10645e-05
0.000884363
0.000165813
0.0152782
0
0
0.00417054
0.0372118
1.01283e-08
5.17712e-09
8.60595e-08
0.299191
4.97856e-08
0.282195
0.283724
0.00182534
0
0
0
9.17336e-08
0.000571103
6.70521e-10
8.07349e-10
3.74006e-10
2.81677e-06
1.09493e-06
3.29786e-06
4.27576e-09
1.24155e-07
9.37814e-08
0
0.163607
0
0.000104192
0.00294507
6.64085e-05
1.0285e-09
1.06456e-10
5.84356e-10
4.88224e-10
3.34613e-05
3.78396e-10
1.67856e-09
0
0.000119636
0
0
0
0.102075
0.114315
0.131831
0
0
0
4.79655e-05
2.54393e-09
0.00491246
0
0.278645
0.297639
0.000616681
5.25677e-09
1.86624e-09
1.41307e-05
4.61638e-09
0.0573176
0
1.46356e-07
2.31262e-08
1.29025e-10
0
7.95769e-09
3.51355e-06
0
4.33217e-08
0.0015528
3.39193e-08
1.2552e-08
0.000864649
0
4.50144e-05
2.31704e-09
0.00307918
0
2.35688e-10
7.60517e-10
4.57252e-06
2.88794e-10
1.40754e-06
0
6.68383e-05
0.0121628
0
0
0
1.07092e-06
1.48677e-06
1.192e-06
0
0.0212658
0
0
0.00142183
0.0138324
0
0
0
0.0225496
0.0310539
0.0400244
0.0297149
1.03029e-07
0.22226
0
0
0
1.4153e-06
3.57116e-07
2.03645e-07
8.54516e-08
0.000693653
3.14759e-07
9.77432e-05
1.08955e-06
5.96422e-07
4.60185e-07
6.52571e-07
0
0
8.51319e-07
0.00869825
0
0
0
0
4.94649e-07
1.5335e-10
6.84395e-07
0
0.250483
0
0
3.5723e-07
0.0319716
9.62644e-07
4.59541e-07
0.000135041
1.8328e-06
0
0.00940744
0.0090652
0.00589701
0.000126188
0.070588
0
0
0.232608
0.24071
0.220027
8.99501e-09
0.0169274
0.00168245
5.25889e-07
6.6367e-05
1.9961e-08
2.20156e-05
2.417e-06
1.52423e-10
0.0298784
0
0
0
0.000950775
0
0
0.323213
0.321151
0.0078577
0.000604929
0
0
0.137833
0
0
0.000883288
6.5297e-08
1.5679e-08
2.32178e-07
0
7.3109e-09
5.10806e-08
0.0672195
0.0546916
3.31728e-08
0.0440421
1.99039e-08
0
0.000279301
0.192522
0
0
0.202729
0.182632
0.166375
0.130176
0
0.369729
0.380294
2.44044e-08
0
6.50413e-06
0
9.62041e-05
0.263599
0
0.259741
0.00019055
0.265867
0.167614
0.00157795
1.19566e-06
1.51707e-07
0.00061612
0.000276261
9.57469e-07
4.04556e-07
0.000450389
6.28472e-08
0.0810118
2.49455e-09
0.00469106
0
0.00571335
0
0
0
0.00015487
5.30085e-06
0
0
8.8583e-10
0
0.0199926
0.0113125
0
5.15497e-08
2.97575e-06
4.87727e-06
3.32432e-06
0.273187
2.93211e-10
0.00104441
2.10786e-09
0.00287394
0
0
0
0.00183139
0.00258107
0.00423071
0.0808425
3.06614e-07
0
2.33542e-08
1.91151e-06
3.30103e-05
4.12325e-05
4.57754e-07
0.123888
0.000445627
4.29679e-06
0.000209138
8.40575e-07
0
4.87777e-05
1.25548e-09
0.161248
0.0846589
5.0227e-10
1.22451e-05
5.56242e-09
2.42835e-07
0.0020067
1.67787e-07
0.151788
0.0104202
0
0
0.0350094
0
0
0
1.73071e-06
0.000596554
0
0
0.0411462
4.19072e-07
0
1.47736e-07
3.23226e-09
4.85604e-08
0.0567681
0.00311365
1.78693e-05
0
6.60987e-07
0
1.14339e-10
1.94507e-10
0
0.0622006
1.95788e-10
4.14656e-06
1.02581e-10
0.00214103
0.0955832
3.84165e-05
0.0730698
0
0.0381773
0.255558
0.241175
0
0.241781
3.22718e-10
0.0318237
5.83958e-07
0.00012502
0.0260572
0.000804557
0.0290714
0.0183114
0.00878733
1.05277e-08
0
3.09801e-06
0.00256734
7.27031e-06
0.0828739
0.209582
8.19795e-10
0.245836
5.32396e-10
6.27544e-10
4.20492e-06
1.50449e-06
0
9.20618e-05
0.0247005
0.000323912
2.79367e-06
0.033634
0.0413096
0.0355267
3.37666e-09
0
0
0.00178575
1.77558e-05
1.46973e-05
0
0.0196222
0.0166228
0.000407318
1.19523e-10
0.00128384
5.78711e-07
2.22545e-05
0.231034
1.20341e-06
1.98306e-05
0.21072
0.000157444
3.42041e-05
0
3.09186e-06
2.85793e-10
0.340075
1.37833e-09
3.12618e-10
1.20933e-05
8.6143e-06
4.62261e-06
1.84135e-07
0.000104672
8.386e-05
7.74394e-05
0.365423
0.00010921
0.253377
6.00378e-10
2.27774e-05
1.32949e-05
0
7.08137e-05
0.00560699
0.00415836
1.55442e-10
0.00158443
3.52466e-06
2.30506e-06
1.96178e-10
0.0144109
0.0113814
0.00797906
0.0105201
0
3.68356e-08
0.0489898
0.000793141
1.25243e-08
0.00401876
1.85938e-06
0.0175344
0.00271785
2.11059e-06
0.0139961
5.54878e-10
0.000241654
0.00034987
0
0.000351739
0
3.6204e-09
0.000228372
0.000246898
7.52607e-09
0.0096945
0
0.0134604
2.0887e-07
0
8.52575e-08
0
9.06011e-08
1.12675e-07
1.2987e-07
1.99223e-08
0.000165415
9.68523e-05
0
0.0473465
0
0.000651849
0
0.000231417
0.000426772
0
0.0026781
0.00231878
0.000898524
0.000428183
0.000612717
7.24164e-09
0.0008146
0.000246719
7.40949e-09
0.00735611
0.00283286
0.0114842
2.18872e-05
7.36131e-05
0.00038359
1.84888e-05
2.49355e-05
1.07752e-05
0.0444159
0
0.000386121
9.63729e-09
0.0185881
0.180682
0
0.00593672
0
0.222244
0.0010802
0.0013072
0.00685211
0.00969134
0
0.00474431
0.0136284
2.64377e-08
0.000564892
1.83574e-09
6.54393e-10
2.99264e-09
2.13992e-05
0.0148778
0
0.0451688
0.124621
6.92426e-06
0.00976147
1.23258e-06
0.00991703
0.00701903
9.88524e-06
0.00625526
3.28397e-06
0
0.00617672
0
0.133683
0
0
0
8.02513e-10
1.24869e-09
1.37188e-09
0.236352
0
0.214194
0.00399997
2.02316e-07
2.1524e-09
6.20477e-07
3.0293e-07
0.00575503
0
0.00746906
0.00377939
9.92373e-07
1.65768e-06
0.0162896
0.0224968
0
4.04614e-07
1.84868e-07
0
0.24562
0
1.28815e-06
0.0979846
0.110986
0
0
0.00625258
0
2.99008e-10
4.17048e-07
0
0.00148978
0.0022064
1.99366e-06
5.61829e-06
1.71634e-07
2.09144e-07
0.000256722
8.4199e-06
0.170633
0.000179681
0.173703
0.138336
0.15003
8.48171e-06
0.000160551
0.178372
0.00183233
2.24642e-05
0
0.00289613
4.83403e-05
1.93229e-09
3.73268e-09
1.16157e-09
0.0731889
0
0.0355443
0
6.21377e-07
0.0105436
0.00823613
0.0053645
0
0
0
0.000239033
6.62682e-09
0.0120081
6.25501e-08
2.25502e-09
1.55655e-07
9.23892e-05
0
8.04962e-08
4.70882e-08
0.000512963
0.0011596
5.69721e-08
1.75006e-08
0.00185351
0.182404
0
1.0751e-08
2.73652e-08
0
1.87571e-05
0.029873
3.72092e-05
0.0263041
1.64968e-05
1.00228e-05
0
0
0
0
0
2.64401e-06
5.13718e-06
0
0
0.000609139
0.00257896
0
0
4.11138e-05
2.81356e-05
2.94849e-05
0
0
1.80592e-06
0
0.000150777
0.000150805
9.54589e-05
0
0
0
0.12997
0.100264
0.0242613
2.86677e-10
4.32693e-10
1.42679e-10
0
2.87515e-10
0
0
0.0681694
0.000430129
0.284594
0.000210688
0.00125236
0.000696121
3.39261e-10
2.46154e-10
1.24761e-10
0.0109655
0.0207338
0.0135859
0.0152683
2.59021e-09
2.01992e-09
2.94229e-08
0
2.97248e-05
0.00071053
0.00151668
1.2344e-07
0.000522772
0
0
2.79319e-05
0.0129455
0.00782067
0.0120486
0.12927
0.137895
0.161968
2.41392e-05
4.17347e-07
2.01766e-05
1.22306e-05
0.000285899
0.000167035
0.148091
0.130195
3.51629e-06
0
2.00443e-05
0.000938406
0.000534573
0
0.000111436
6.4975e-05
0.00449718
0.194477
0.111632
0
0.199419
0.141677
0
0.0013507
0
0.000335818
0.00444271
0
0.0736763
0.000778075
0.00120393
3.15389e-06
0.000223176
0.0656533
0.0510599
0.000431603
2.06082e-08
0.0296332
5.61913e-09
0.0227878
0.0176361
2.11753e-05
0.202688
1.59614e-07
4.92658e-08
8.83285e-06
0
0
0.00187796
0.000884232
0
0
1.19876e-05
7.72546e-09
2.02293e-07
1.38354e-08
4.78655e-05
1.75885e-06
1.24199e-06
1.76508e-06
0.249934
0.292673
0
9.96485e-10
1.85462e-09
0.0816452
0.000104792
5.28209e-05
1.46425e-08
0.000244027
0
3.6102e-10
0.0510143
0.0577998
2.68851e-09
0
0.0180764
1.87806e-07
9.71474e-08
0.00909893
1.50895e-07
0.00103985
1.70448e-05
0.227921
0.00324318
1.23474e-07
0.011113
6.34657e-08
0
0.00870051
2.15382e-05
0
0.121996
5.70808e-07
0.00016014
0.000680231
7.55549e-06
0.000361457
4.62799e-10
1.03428e-09
2.62279e-10
0.131174
0.000315005
2.53824e-07
2.28872e-06
1.39126e-10
8.6446e-06
0.000867283
0.000386931
0
0.000688175
3.2505e-06
1.26583e-06
0.0011086
1.88468e-10
0
0.00223854
0.00142054
0.00273429
0
4.41909e-05
3.82689e-07
1.09795e-07
0.000102503
4.87939e-05
0.247508
8.79461e-05
0
0.00178332
1.63526e-06
0.146135
0
0.146889
0.113526
0.000191666
0.0330178
0.0217145
0.000332976
0
0
1.69741e-08
0.0579971
5.18247e-10
0.0681738
0.0814127
0.158467
0
1.08109e-06
0.112187
0.0679123
9.93338e-06
5.82262e-09
0.144073
2.18987e-09
5.05384e-09
0
5.11278e-06
4.59665e-06
3.26051e-06
1.79611e-06
1.76386e-06
0.00882678
3.53942e-06
0.00753143
0.00552111
7.28793e-06
4.92805e-06
6.22078e-05
1.10948e-05
0.000787715
8.15893e-06
0
2.82566e-08
3.74328e-08
0.000981872
5.62466e-08
0.077046
0.118365
5.84271e-07
0.121278
0.00141542
3.0107e-05
8.83372e-06
4.49657e-06
0.029062
0
0
0
0
0.000487468
3.02909e-08
7.4433e-09
0.000835076
0.0339407
0
0
0
4.92738e-05
0
2.25188e-05
4.75145e-10
0
0
0
0
1.46838e-08
0
0
0.0303767
0
0
0.0191218
0
0
0.0541956
0
0.343746
3.60942e-08
0.000425503
2.55312e-08
0.000699248
0.000712647
5.90645e-08
0
0.000800179
1.49498e-10
1.7321e-07
0.0469765
0
0
6.18469e-08
0
1.74121e-08
0.00122075
0
0
0
7.09144e-10
1.12967e-07
0.00352344
0.0437709
0
0.248217
8.15336e-05
0.132453
0.000407305
0.0343534
0
6.98684e-07
0.105402
0.0951593
0.000429447
0
0.000154859
0
1.2291e-06
4.63715e-08
5.13407e-07
0
2.06754e-07
0.000504747
0.230951
4.86152e-05
0
6.45106e-05
1.6136e-08
6.62672e-05
0.0198
1.57967e-06
4.38616e-07
9.5559e-05
0.000247048
0
5.44997e-08
1.12247e-08
0.161456
0
0.1038
0
0
0
0.00103232
0.113139
1.32535e-09
0
0.25169
0
0
8.82984e-06
0.0714047
0.00264365
0.142508
0.281242
0.000969373
7.9468e-09
0
1.74047e-09
0.104272
0.00126364
0.000632501
0.115106
0
0
0
0
1.80889e-10
0
0
0.00279118
0
0.0437939
0
0
0
0
0.0749028
0.107125
1.05625e-10
3.55448e-08
7.64486e-09
4.00773e-07
0
0.287675
6.51215e-07
5.18629e-09
0
0.00660117
0.00240155
0.0254444
1.26648e-08
0.000273041
6.15759e-06
5.33447e-09
7.47058e-08
0.000587002
0.000174288
9.09397e-08
3.33519e-08
0.000241851
0.00104858
0.0280871
8.55973e-09
9.0183e-09
0.00152295
1.0139e-05
0.0861345
0.000713137
1.14891e-08
0.0716893
3.43451e-10
0.0156778
7.50174e-07
5.57997e-08
0.000355677
0.000164171
3.13478e-06
0.0658049
8.94385e-10
6.61959e-07
0.0835808
0
3.96234e-05
2.9025e-07
7.83174e-05
0.00177843
0
0.134324
0.00577867
2.49047e-08
0.125079
9.69742e-09
0.146929
0
0.000884194
1.71768e-06
6.57434e-07
0
0.00136934
0.00133311
1.05233e-07
0
0.000252766
0
0.00188623
7.79698e-05
3.44212e-05
0.00374726
1.00574e-06
0.00833563
0.0762505
0
0.00278338
0
0
0.261155
9.76215e-05
0.0128682
0.000230254
0.00128535
3.13866e-10
0.000340096
0.000717758
0.0210523
0
0.000716484
0.000332076
1.00429e-10
0.000216521
3.73336e-09
0.000193522
0
8.74006e-07
0.00015319
4.55606e-05
0
0
2.73671e-09
0.0928226
0
0
0.000128002
0.254663
0.000356969
0.000109589
0
2.63301e-10
0.000421333
0.000306854
0.00667122
0.289386
1.50935e-09
0.0473247
0
1.8081e-08
0.000414248
0
0
7.22997e-06
0.00423494
0.000301626
0
9.37178e-06
0
0
3.33676e-05
0
2.81173e-08
0.0659329
1.74073e-05
0.254355
0.000936329
4.62792e-05
0.00807349
0.0431937
0.00600947
1.29194e-09
1.26072e-06
0.000382481
2.04933e-08
6.02116e-08
0.00010214
8.57707e-10
0.00152077
5.01724e-09
3.79791e-09
0
0
2.71804e-07
0
0.00539057
3.43593e-08
0.0020016
0
0.377714
0.0139205
1.05049e-06
0.367799
0.335529
0
0.100988
1.35194e-10
0.387237
0.363077
0.00176429
0.0152555
1.07404e-07
0
1.56136e-05
1.47822e-08
0
5.34065e-05
0
0
0.000217632
0
2.90952e-10
0
2.46938e-07
0.000228437
0
9.10549e-09
0.00607258
4.02798e-07
2.08727e-06
5.58334e-07
9.90753e-06
0
3.3114e-05
0
2.46692e-05
4.01136e-05
0.0849777
1.43965e-09
0
0.000147486
4.32342e-07
2.33747e-10
0.00172546
0.000132622
0.0154754
1.33072e-06
0
0.0986926
0.000305824
4.92e-07
2.22396e-08
0.00103043
3.52676e-10
4.39127e-10
0
1.96398e-09
0
5.53252e-07
6.80963e-10
0.00370256
0.000134572
7.53541e-05
0.00724203
6.36832e-09
3.30131e-09
1.92648e-05
1.95927e-05
0.0106552
1.05446e-06
4.42492e-07
0.00681255
3.94164e-06
0.000246333
1.6606e-08
1.67903e-10
0.000237695
1.62814e-05
0.00060857
2.70686e-08
0.0372122
0.235521
0.0366027
8.50122e-05
0.00989871
0.000141996
0.00186348
2.53775e-06
4.68067e-05
3.32033e-07
2.82269e-07
9.30329e-05
6.89094e-09
0.000109919
0.00287472
0
1.14929e-10
4.45155e-05
0
2.69808e-06
3.18682e-05
0
0
2.267e-05
3.57163e-09
3.44705e-05
0.000137602
1.74934e-10
0.013872
1.19658e-10
2.21022e-05
0.0436219
0
0.0145018
0
0
0.00395852
0.208179
0.32517
0
0
0.000287905
0.00161369
1.62135e-05
0.0034843
0
0
0.00844073
0.0411587
1.49571e-06
8.18258e-07
0.02477
1.09112e-07
0.124577
1.37764e-07
0
0
3.73013e-07
1.33317e-10
2.10301e-10
0.000151387
0
0.034305
3.20671e-06
1.00267e-08
0
0
0
1.25242e-06
0.288508
0
1.66299e-05
0
0
0.000561489
0.0129748
1.11771e-09
0.000224537
9.84341e-07
1.8679e-08
0.0300121
3.94363e-06
1.69823e-06
0
0.10605
0
0
2.1945e-10
1.66038e-10
0
0.17347
1.71249e-09
0
0
0
2.21797e-06
9.54074e-09
3.91838e-09
5.05133e-06
5.52782e-07
0
0.0259046
3.52942e-06
0.0211975
0
0.00684025
0.000417872
0.00572769
0
0.000203311
0
1.22648e-05
0.0777095
0
8.64852e-05
2.12819e-05
3.54201e-10
0
1.46061e-09
2.85634e-09
0
0
5.24022e-06
1.52545e-08
0
0
0.00207054
0
0.0208098
0.0048473
0
0
0.259905
0
0
0.0661501
2.85664e-06
2.00485e-06
0.0594173
0
0
0.015976
0.00238457
9.83084e-10
0
7.30354e-07
2.2547e-10
2.64596e-05
0.0569044
0.00385204
0
0.00202911
0
0.0108076
7.7635e-07
5.56538e-10
1.76649e-06
3.3477e-09
0.00156147
0.00325197
9.95892e-09
0.0100208
0
0
0.000274465
0
4.90619e-06
0
0.0576719
9.55523e-08
1.46922e-08
1.15672e-07
0
8.60917e-08
4.5489e-05
0.0582801
0
2.13414e-07
0
0.099258
0
0
0.00234964
8.24836e-08
0.30979
0.162468
4.66783e-10
1.05158e-10
0
0.00818675
5.32043e-07
0
6.54291e-10
0
0.00227089
0
0.354434
0.256999
2.19469e-05
0.262118
1.16442e-09
1.56106e-06
0
0.0057606
0.110224
0
9.53316e-07
2.32085e-06
0
8.53142e-05
0
0
9.32242e-07
8.94344e-09
0.0218383
6.58908e-07
0.00125367
1.38293e-07
0.00415673
0.000291739
0.00032337
0.000170832
0.000807462
0
0.030848
0.00501689
1.46779e-06
0.00181405
0
0
0
0.000337796
0.000966461
0
1.9342e-06
0
0.0747664
0.100926
0
0
0.00391823
1.02318e-10
4.85856e-09
0
0.00137079
0.00118677
0
1.26607e-06
1.93623e-10
0
4.23381e-07
0.00300273
6.1844e-05
0.283359
0.256466
0
0.16312
0
0.00137384
0.0857291
0
0.00072727
0
6.59828e-09
0.000213851
6.22168e-10
0.067274
0
0
4.47769e-05
0.0907508
0.00148527
0.000515028
0
0
0.025489
8.43853e-06
0
0.190647
0.147663
0.00115675
5.67492e-07
2.60777e-06
8.32343e-07
1.73108e-06
0
0.379959
0
7.84981e-07
2.68463e-09
0
0
0.000652405
5.60406e-09
0
0
1.20746e-06
0.010821
0
0
7.08948e-06
0.0021078
0
7.54009e-05
0.00342711
1.51774e-09
0.0942921
1.57614e-06
0.0251833
0.0133666
4.9933e-07
0.00781213
2.37236e-07
0.000885077
9.51199e-06
4.02853e-07
2.12705e-08
0.000706363
0.00200954
5.68018e-08
0
0
8.60513e-10
0.0544923
6.38091e-06
0
0
6.04835e-10
3.93402e-05
0
0.00680568
3.84473e-07
2.42666e-10
7.43069e-06
0.000721642
0
0.00238569
3.34145e-09
1.90042e-06
0.000307903
0
0.131212
1.25576e-06
0
0.0819193
5.36237e-05
0.0676616
2.94452e-10
0.000604035
0.00158947
5.39733e-05
0
6.90915e-10
3.11298e-10
0
0
0.0182201
0
0
0
8.06382e-10
6.10083e-09
3.2161e-05
0.0345419
2.84305e-06
0
0.00844594
7.93005e-09
1.42496e-09
0
1.35205e-07
0.00079019
4.07833e-08
0.0020493
0.00263532
9.17358e-08
0
0.19572
0.00454144
0
0
3.21428e-09
2.37933e-09
0.000132129
0
0.330387
7.27263e-10
6.17136e-05
0
4.0873e-06
0
2.43168e-06
0
0
4.53072e-05
0.0109215
2.04656e-05
0.000152326
0.160256
1.04548e-05
9.92672e-07
0
0.224331
0.000218215
2.19134e-07
0
2.50406e-05
9.83597e-08
9.26625e-09
0.00104754
0
0
2.32151e-06
0.00281415
0
4.91867e-08
2.36239e-08
9.69311e-07
3.5899e-05
0.00697198
0
0.269649
0.25022
0.302019
0
0.109759
1.10313e-09
0.00143893
0
0
6.81676e-06
1.30379e-05
0.00548115
0.00181963
3.00291e-08
0
0
5.58075e-10
2.10013e-07
0
0.0443265
4.45399e-07
0.00864738
0
1.34214e-09
1.67134e-08
0
0.00383291
1.89647e-10
2.40138e-06
0.000580143
0.00114157
3.73751e-10
0.00108209
4.10021e-10
0.000850387
0
2.44581e-08
1.22341e-09
0.00167447
0.00453963
0.0392347
0.00615021
0
2.06617e-05
0.0113009
0
0.0507006
0
1.62666e-07
0
3.32044e-09
0.000769547
1.22479e-07
3.22605e-09
0
2.00992e-06
0.113611
0.0771787
0
0
6.94705e-08
4.37876e-07
1.16568e-05
0.0971546
0.02612
3.88745e-08
1.2253e-07
0
8.43044e-07
1.4255e-08
0
0.0907632
0.00609859
0
0
2.12938e-10
1.31084e-05
1.53191e-05
1.83224e-05
3.98322e-05
0.000841371
5.77298e-06
0.000505891
0.00280948
0
0.000165147
0
4.84501e-06
0.00060855
6.78699e-06
0.00021397
2.39737e-06
0
4.35261e-10
5.53837e-06
0.017321
0.0193518
0.0302075
0
1.46574e-06
0.0181238
4.69916e-05
0.000283744
0.196204
2.31129e-05
0.0192358
2.03248e-07
4.38213e-09
2.77232e-08
6.94298e-06
2.64516e-06
7.60687e-08
9.13891e-10
0.0309234
0
0
6.16824e-06
0.000161243
5.85192e-05
7.2088e-07
0
0
0.00294103
0
4.22985e-08
2.25281e-07
0
5.73115e-09
0.000529373
1.09434e-07
0
1.07513e-10
0.000310069
0
0.063017
0.0120296
0
0
0.000166904
0
0
0.000105051
0.0128269
0.343477
0
0
0.000351533
0.00055543
0.136992
1.4246e-07
1.3159e-07
0
0
0
0.000508854
0.0020626
0.00238659
0.000869124
0.00755096
0.00101167
7.89789e-10
1.52099e-09
0
0
4.41877e-08
2.9387e-10
5.36143e-07
0.000210009
0.00730398
0.0447559
0.33965
0.162361
0
0.0124679
0.00345198
0.00180441
0
0.110933
0.00300143
0
2.57211e-06
1.88558e-06
1.17283e-06
0
0
1.69555e-05
1.49017e-05
0
0.00776543
0
0
0
0
0.000121611
0.0216725
8.39108e-07
2.10335e-07
0.126019
7.04789e-07
1.53754e-06
4.24106e-07
0
0.188799
0.138398
0.166416
0
0.000874069
0
0
0.369418
5.29618e-09
1.8039e-08
0.0575744
0.00277314
0.000420147
0
0
2.96465e-06
7.66874e-05
0.139234
7.98247e-06
1.69211e-07
1.01372e-07
2.07704e-05
0
5.08479e-05
0.0467607
0.0429469
0.000101325
7.95811e-08
4.11312e-07
0.168679
0.230221
0.0171016
0
8.00244e-05
2.91397e-08
9.94155e-07
2.03663e-07
2.54286e-08
0.312254
0.356678
1.1151e-09
0.00323896
0.000101553
0
1.40398e-10
0.038552
0.000577101
0
0
3.05958e-09
0
0
0.0262589
0
0
0
0
0.264707
1.10823e-10
0.0283746
5.63208e-06
5.02255e-06
0
1.5325e-05
0
1.8849e-06
0
4.50513e-05
2.19908e-06
0.00441681
0
2.93014e-06
0.357374
0
4.35526e-06
0
6.8569e-07
0
4.83471e-07
1.05776e-06
0.011042
0
4.55693e-07
6.42253e-06
0
3.9224e-07
0.00321093
0
5.12356e-07
0
0.319361
0
7.71905e-07
1.40909e-06
0
0.240816
0
0.00118753
0
0.000420283
0.221412
0
0.187292
0
0.215986
0
0
1.62888e-08
3.8795e-08
0.000187089
0
0.0139041
3.8559e-07
0
0.000590079
1.10958e-08
0
0
1.27157e-06
0
0.0056568
0.0123005
0.00179207
0
0.00762931
0
7.61583e-07
0
0
0
0.00295894
9.34095e-07
0.00193308
1.78047e-05
4.08906e-06
0.00771258
1.84222e-07
5.85752e-07
8.45659e-05
0
6.02634e-09
1.33596e-08
0.00103145
0
0.0026488
1.13453e-08
0
0
0
6.05003e-06
1.05139e-08
1.81786e-06
0
0.00624118
0
0.0331477
0.000587673
0.00108409
2.08403e-05
0.0562585
1.27074e-08
0
0
2.51968e-08
0
0.00223685
0
0.0095602
0.157096
4.33892e-09
0
1.23745e-08
0.00261512
3.78192e-05
0.000839508
0
0.00039124
9.02301e-05
7.7503e-08
0.0491351
0
3.40396e-08
0.000337933
0.000849206
0
4.77781e-05
0.000126869
3.95424e-08
0
0.071556
0.0603987
4.04742e-06
1.45426e-09
0.000422941
0.00028253
4.41383e-05
0
3.38058e-06
0.0452357
1.58074e-06
3.40597e-06
2.4801e-07
0.00419022
7.86566e-06
0.0494479
2.35546e-07
0.0301884
1.57746e-07
0
0
0
0.0319602
3.36222e-08
0
1.02181e-09
0.0898187
7.98391e-07
0.0781274
6.68955e-05
0
3.11568e-07
0.00568956
1.33969e-06
0.0962545
0
0
0
0.388622
0.100299
0
0.265366
5.10179e-06
0
5.79404e-05
0
0
0.0559172
0.00127225
5.45844e-07
0.00415004
0.00351201
1.26039e-06
6.25539e-07
5.711e-07
2.29911e-05
2.92807e-10
0.000111836
8.11937e-06
1.60208e-09
0.0380183
2.27543e-10
3.36386e-05
0.047102
0.138511
5.94742e-05
0.00181729
0.0654023
0.0533209
0.039648
0
0.00568721
0.0630172
5.19128e-08
0.0431085
0.069727
0.00272464
3.60101e-09
0
1.69394e-10
0
4.44319e-08
0.0020147
0
8.80187e-08
0.00288397
2.16742e-07
0.00427728
0.00135566
0
0.274584
8.60728e-08