# vtk DataFile Version 2.0
Unstructured Grid by M++
ASCII
DATASET UNSTRUCTURED_GRID
POINTS 4072 float
  0.609375   0.843750 0
  0.562500   0.843750 0
  0.531250   0.843750 0
  0.875000   0.828125 0
  0.984375   0.828125 0
  0.953125   0.828125 0
  0.937500   0.828125 0
  0.843750   0.828125 0
  0.812500   0.828125 0
  0.781250   0.828125 0
  0.765625   0.828125 0
  0.734375   0.828125 0
  0.703125   0.828125 0
  0.671875   0.828125 0
  0.640625   0.828125 0
  0.609375   0.828125 0
  0.593750   0.828125 0
  0.562500   0.828125 0
  0.546875   0.828125 0
  0.531250   0.828125 0
  0.515625   0.828125 0
  0.968750   0.812500 0
  0.937500   0.812500 0
  0.921875   0.812500 0
  0.890625   0.812500 0
  0.859375   0.812500 0
  0.828125   0.812500 0
  0.796875   0.812500 0
  0.765625   0.812500 0
  0.750000   0.812500 0
  0.718750   0.812500 0
  0.687500   0.812500 0
  0.656250   0.812500 0
  0.625000   0.812500 0
  0.593750   0.812500 0
  0.578125   0.812500 0
  0.546875   0.812500 0
  0.531250   0.812500 0
  0.515625   0.812500 0
  0.984375   0.796875 0
  0.562500   0.015625 0
  0.953125   0.796875 0
  0.921875   0.796875 0
  0.906250   0.796875 0
  0.875000   0.796875 0
  0.843750   0.796875 0
  0.812500   0.796875 0
  0.781250   0.796875 0
  0.750000   0.796875 0
  0.734375   0.796875 0
  0.703125   0.796875 0
  0.671875   0.796875 0
  0.640625   0.796875 0
  0.609375   0.796875 0
  0.578125   0.796875 0
  0.562500   0.796875 0
  0.531250   0.796875 0
  0.515625   0.796875 0
  0.968750   0.781250 0
  0.546875   0.000000 0
  0.937500   0.781250 0
  0.906250   0.781250 0
  0.890625   0.781250 0
  0.859375   0.781250 0
  0.828125   0.781250 0
  0.796875   0.781250 0
  0.765625   0.781250 0
  0.734375   0.781250 0
  0.718750   0.781250 0
  0.687500   0.781250 0
  0.656250   0.781250 0
  0.625000   0.781250 0
  0.593750   0.781250 0
  0.562500   0.781250 0
  0.546875   0.781250 0
  0.515625   0.781250 0
  0.984375   0.765625 0
  0.953125   0.765625 0
  0.921875   0.765625 0
  0.890625   0.765625 0
  0.875000   0.765625 0
  0.843750   0.765625 0
  0.812500   0.765625 0
  0.781250   0.765625 0
  0.750000   0.765625 0
  0.718750   0.765625 0
  0.703125   0.765625 0
  0.671875   0.765625 0
  0.640625   0.765625 0
  0.609375   0.765625 0
  0.578125   0.765625 0
  0.593750   0.750000 0
  0.562500   0.765625 0
  0.546875   0.765625 0
  0.531250   0.765625 0
  0.562500   0.750000 0
  0.968750   0.750000 0
  0.937500   0.750000 0
  0.906250   0.750000 0
  0.875000   0.750000 0
  0.859375   0.750000 0
  0.828125   0.750000 0
  0.796875   0.750000 0
  0.765625   0.750000 0
  0.734375   0.750000 0
  0.703125   0.750000 0
  0.687500   0.750000 0
  0.671875   0.750000 0
  0.656250   0.750000 0
  0.625000   0.750000 0
  0.546875   0.750000 0
  0.531250   0.750000 0
  0.515625   0.750000 0
  0.562500   0.734375 0
  0.984375   0.734375 0
  0.953125   0.734375 0
  0.921875   0.734375 0
  0.890625   0.734375 0
  0.859375   0.734375 0
  0.843750   0.734375 0
  0.812500   0.734375 0
  0.781250   0.734375 0
  0.750000   0.734375 0
  0.718750   0.734375 0
  0.687500   0.734375 0
  0.671875   0.734375 0
  0.656250   0.734375 0
  0.640625   0.734375 0
  0.546875   0.734375 0
  0.531250   0.734375 0
  0.515625   0.734375 0
  0.562500   0.718750 0
  0.968750   0.718750 0
  0.937500   0.718750 0
  0.906250   0.718750 0
  0.875000   0.718750 0
  0.843750   0.718750 0
  0.796875   0.718750 0
  0.765625   0.718750 0
  0.734375   0.718750 0
  0.703125   0.718750 0
  0.687500   0.718750 0
  0.671875   0.718750 0
  0.656250   0.718750 0
  0.625000   0.718750 0
  0.546875   0.718750 0
  0.531250   0.718750 0
  0.515625   0.718750 0
  0.562500   0.703125 0
  0.953125   0.703125 0
  0.921875   0.703125 0
  0.890625   0.703125 0
  0.859375   0.703125 0
  0.828125   0.703125 0
  0.781250   0.703125 0
  0.750000   0.703125 0
  0.718750   0.703125 0
  0.687500   0.703125 0
  0.656250   0.703125 0
  0.546875   0.703125 0
  0.531250   0.703125 0
  0.515625   0.703125 0
  0.984375   0.687500 0
  0.937500   0.687500 0
  0.921875   0.687500 0
  0.906250   0.687500 0
  0.875000   0.687500 0
  0.843750   0.687500 0
  0.812500   0.687500 0
  0.765625   0.687500 0
  0.734375   0.687500 0
  0.703125   0.687500 0
  0.671875   0.687500 0
  0.640625   0.687500 0
  0.593750   0.687500 0
  0.562500   0.687500 0
  0.546875   0.687500 0
  0.531250   0.687500 0
  0.515625   0.687500 0
  0.968750   0.671875 0
  0.937500   0.671875 0
  0.921875   0.671875 0
  0.906250   0.671875 0
  0.890625   0.671875 0
  0.859375   0.671875 0
  0.828125   0.671875 0
  0.796875   0.671875 0
  0.765625   0.671875 0
  0.750000   0.671875 0
  0.718750   0.671875 0
  0.687500   0.671875 0
  0.656250   0.671875 0
  0.625000   0.671875 0
  0.593750   0.671875 0
  0.578125   0.671875 0
  0.546875   0.671875 0
  0.531250   0.671875 0
  0.515625   0.671875 0
  0.984375   0.656250 0
  0.953125   0.656250 0
  0.937500   0.656250 0
  0.921875   0.656250 0
  0.906250   0.656250 0
  0.875000   0.656250 0
  0.843750   0.656250 0
  0.812500   0.656250 0
  0.781250   0.656250 0
  0.750000   0.656250 0
  0.734375   0.656250 0
  0.703125   0.656250 0
  0.671875   0.656250 0
  0.640625   0.656250 0
  0.609375   0.656250 0
  0.578125   0.656250 0
  0.562500   0.656250 0
  0.531250   0.656250 0
  0.515625   0.656250 0
  0.968750   0.640625 0
  0.937500   0.640625 0
  0.906250   0.640625 0
  0.890625   0.640625 0
  0.859375   0.640625 0
  0.828125   0.640625 0
  0.796875   0.640625 0
  0.765625   0.640625 0
  0.734375   0.640625 0
  0.718750   0.640625 0
  0.687500   0.640625 0
  0.656250   0.640625 0
  0.625000   0.640625 0
  0.593750   0.640625 0
  0.562500   0.640625 0
  0.546875   0.640625 0
  0.515625   0.640625 0
  0.984375   0.625000 0
  0.953125   0.625000 0
  0.921875   0.625000 0
  0.890625   0.625000 0
  0.875000   0.625000 0
  0.843750   0.625000 0
  0.812500   0.625000 0
  0.781250   0.625000 0
  0.750000   0.625000 0
  0.734375   0.625000 0
  0.718750   0.625000 0
  0.703125   0.625000 0
  0.671875   0.625000 0
  0.640625   0.625000 0
  0.609375   0.625000 0
  0.578125   0.625000 0
  0.562500   0.625000 0
  0.546875   0.625000 0
  0.531250   0.625000 0
  0.968750   0.609375 0
  0.937500   0.609375 0
  0.906250   0.609375 0
  0.875000   0.609375 0
  0.859375   0.609375 0
  0.828125   0.609375 0
  0.796875   0.609375 0
  0.765625   0.609375 0
  0.750000   0.609375 0
  0.734375   0.609375 0
  0.718750   0.609375 0
  0.703125   0.609375 0
  0.687500   0.609375 0
  0.656250   0.609375 0
  0.625000   0.609375 0
  0.593750   0.609375 0
  0.562500   0.609375 0
  0.546875   0.609375 0
  0.531250   0.609375 0
  0.515625   0.609375 0
  0.984375   0.593750 0
  0.953125   0.593750 0
  0.921875   0.593750 0
  0.890625   0.593750 0
  0.859375   0.593750 0
  0.843750   0.593750 0
  0.812500   0.593750 0
  0.781250   0.593750 0
  0.750000   0.593750 0
  0.734375   0.593750 0
  0.718750   0.593750 0
  0.687500   0.593750 0
  0.671875   0.593750 0
  0.640625   0.593750 0
  0.609375   0.593750 0
  0.578125   0.593750 0
  0.562500   0.593750 0
  0.546875   0.593750 0
  0.531250   0.593750 0
  0.515625   0.593750 0
  0.968750   0.578125 0
  0.937500   0.578125 0
  0.906250   0.578125 0
  0.875000   0.578125 0
  0.890625   0.562500 0
  0.843750   0.578125 0
  0.828125   0.578125 0
  0.796875   0.578125 0
  0.765625   0.578125 0
  0.734375   0.578125 0
  0.703125   0.578125 0
  0.671875   0.578125 0
  0.656250   0.578125 0
  0.656250   0.562500 0
  0.625000   0.578125 0
  0.640625   0.562500 0
  0.593750   0.578125 0
  0.562500   0.578125 0
  0.546875   0.578125 0
  0.531250   0.578125 0
  0.515625   0.578125 0
  0.859375   0.562500 0
  0.828125   0.562500 0
  0.781250   0.562500 0
  0.750000   0.562500 0
  0.718750   0.562500 0
  0.687500   0.562500 0
  0.609375   0.562500 0
  0.578125   0.562500 0
  0.562500   0.562500 0
  0.546875   0.562500 0
  0.531250   0.562500 0
  0.515625   0.562500 0
  1.000000   0.812500 0
  0.578125   0.031250 0
  0.875000   0.546875 0
  0.625000   0.546875 0
  0.218750   0.000000 0
  0.640625   0.781250 0
  0.828125   0.093750 0
  0.031250   0.531250 0
  0.296875   0.328125 0
  0.296875   0.312500 0
  0.281250   0.312500 0
  0.765625   0.312500 0
  0.031250   0.859375 0
  0.093750   0.265625 0
  0.109375   0.250000 0
  0.187500   0.671875 0
  0.421875   0.640625 0
  0.031250   0.062500 0
  0.140625   0.125000 0
  0.562500   0.906250 0
  0.125000   0.437500 0
  0.203125   0.937500 0
  0.125000   0.421875 0
  0.140625   0.406250 0
  0.093750   0.437500 0
  0.109375   0.421875 0
  0.093750   0.421875 0
  0.109375   0.406250 0
  0.328125   0.125000 0
  0.750000   0.906250 0
  0.328125   0.109375 0
  0.750000   0.890625 0
  0.312500   0.125000 0
  0.734375   0.906250 0
  0.281250   0.343750 0
  0.265625   0.359375 0
  0.500000   0.796875 0
  0.078125   0.015625 0
  0.062500   0.015625 0
  0.484375   0.796875 0
  0.484375   0.781250 0
  0.062500   0.000000 0
  0.015625   0.250000 0
  0.062500   0.046875 0
  0.484375   0.828125 0
  0.484375   0.812500 0
  0.062500   0.031250 0
  0.281250   0.671875 0
  0.062500   0.234375 0
  0.328125   0.765625 0
  0.312500   0.750000 0
  0.015625   0.671875 0
  0.781250   0.187500 0
  0.015625   0.265625 0
  0.453125   0.250000 0
  0.453125   0.234375 0
  0.031250   0.265625 0
  0.046875   0.250000 0
  0.093750   0.015625 0
  0.265625   0.656250 0
  0.734375   0.281250 0
  0.156250   0.015625 0
  0.062500   0.265625 0
  0.046875   0.281250 0
  0.031250   0.281250 0
  0.343750   0.781250 0
  0.328125   0.781250 0
  0.265625   0.687500 0
  0.265625   0.703125 0
  0.156250   0.109375 0
  0.578125   0.890625 0
  0.484375   0.984375 0
  0.062500   0.203125 0
  0.328125   0.718750 0
  0.343750   0.734375 0
  0.343750   0.750000 0
  0.453125   0.500000 0
  0.437500   0.500000 0
  0.234375   0.093750 0
  0.171875   0.375000 0
  0.437500   0.531250 0
  0.468750   0.546875 0
  0.453125   0.546875 0
  0.187500   0.015625 0
  0.187500   0.000000 0
  0.609375   0.781250 0
[...]
CELL_DATA 7648
SCALARS scalar_value float 1
LOOKUP_TABLE default
0.155547
0.142682
0.126636
0.150113
1.34309e-08
8.50858e-09
8.74835e-09
5.76446e-09
0.138839
0.12372
0.119838
2.06929e-08
9.26037e-09
1.70258e-08
0.261537
0.261613
0.254571
0.263989
0.0318151
0.0305774
0.0342856
0.0272323
9.45071e-05
0.00410407
0.0043555
0.00597106
0.00353522
0.0317489
0.0272608
2.33483e-05
2.5951e-05
3.68515e-05
1.557e-05
5.62339e-05
6.08366e-05
8.32286e-05
3.76506e-05
1.06955e-05
1.21424e-05
1.69004e-05
0.000293033
0.00059911
0.00898516
0.00631008
0.00501789
0.00039599
0.00029802
0.000278589
0.000687629
0.000588536
1.02846e-05
0.00158279
0.00144729
0.00133076
5.01206e-05
0.00539443
3.01316e-05
3.25291e-05
0.00170344
0.00236319
0.00326407
0.0114501
0.000708864
6.60364e-06
8.73232e-06
7.9399e-08
9.07893e-08
0.00150707
0.0105823
4.02845e-06
0.171253
0
0.0236023
0.0231905
4.50131e-05
4.39267e-08
0.0629372
8.02932e-08
1.7636e-05
0.0216995
0.019434
8.41257e-10
3.9631e-06
5.39584e-08
4.61029e-05
4.04957e-05
0.145778
0.139143
7.18337e-07
0
6.58134e-05
3.52693e-08
0.0358902
0.0413201
1.80577e-08
0.00240034
0.000541029
0.00429445
0.000710803
0.000475284
0.0213275
0.000907676
0.0196741
0.0176689
0.00212164
0.00682821
0.156438
4.97739e-05
2.55469e-05
0.000137296
0.00228509
0.000126137
9.03685e-05
3.49449e-08
0.0499447
2.78642e-08
0.0559074
0.0432671
0.000739179
8.75635e-09
5.55163e-09
1.17927e-10
1.71708e-08
0.00470381
3.63436e-09
6.70718e-09
3.50513e-09
0.0144736
0.00979581
0.0160876
2.82901e-08
0.0018223
2.00981e-08
2.38528e-07
0.219731
9.28264e-08
0.0731682
0.00170895
0.000113182
0.000278307
2.63433e-05
0.000216013
0.000209137
4.99739e-05
0.000176727
0.000462014
2.37444e-09
0.00108692
4.95338e-06
2.45836e-06
1.72692e-06
0.00718936
0.00886261
0.0109083
0
0
2.68945e-07
7.49368e-05
0.000646846
0.00186763
0
0.0345781
0.0387589
0.0309738
0.000871704
0.000528406
3.84639e-05
0.000753196
0.00812056
1.00367e-08
2.61323e-08
0.00262514
0.000102106
1.17056e-10
0.000105466
0.000371939
6.72344e-08
0.00195775
0.0317026
0.0019257
0.00121083
0.0279424
3.16808e-05
0.0432719
4.61238e-09
0.00603287
1.89678e-05
1.56515e-09
3.3365e-09
0.0159982
2.44145e-09
0.00902785
1.28359e-05
1.8225e-06
0.000496447
9.25677e-06
9.77079e-06
6.80334e-06
9.97641e-08
1.34176e-07
1.21912e-07
6.81195e-06
0.0154447
1.00399e-05
1.0538e-05
0.00461237
0.00350016
6.26969e-08
2.99738e-08
4.91154e-08
0.000985131
0.00144534
0.00201145
0.00133035
0.00519014
0.0534984
0
8.42833e-09
5.60535e-10
0.00199652
0.00160048
0.00487744
0.00329573
0.000150564
0.00560419
2.53766e-05
0.00162948
0.00135402
0.0070075
0.00816041
8.02606e-07
1.44997e-06
0.00863294
0.0487279
1.48941e-06
9.7489e-07
7.73135e-07
7.59583e-07
0.00501592
2.41601e-09
0.00510308
0
0.163098
1.30957e-06
9.41232e-07
0.00731664
0.161451
0.00972351
0.0070068
2.46867e-05
0.0116606
1.96648e-05
0.00291577
0.00337362
0.00273694
0.0678977
0.0627083
1.55902e-06
7.88834e-07
0.025337
0.0288441
0.027183
0.000550107
0.0010399
0.000215668
0.00914031
7.15395e-05
0.00173307
3.68204e-05
0.0171176
0.000204458
0.0102125
1.32064e-10
8.60406e-09
1.33149e-10
0.000118926
3.89984e-08
8.9939e-06
0.13338
0.151978
0.00027018
0.125214
1.50062e-05
0
0.172939
1.11265e-05
0
0.00012913
1.02438e-06
0.000623318
2.26794e-06
2.17187e-08
0.000153817
2.59703e-07
0.0824952
0.0781215
2.57037e-07
0.0840844
8.23919e-09
2.29489e-05
0.0019538
0.216552
2.16501e-10
3.67435e-06
0.0192073
0.0161934
0.0145459
0.0358868
2.31706e-05
0.0952594
0.0878859
0.000796304
3.72477e-08
1.13066e-06
1.99886e-07
0.0194428
0.0542813
2.933e-07
0.0482593
0.0223676
0.0420914
0.0139827
0.146076
0.00497065
0.00221033
0.00910255
0.0028179
0.00418963
0.00312464
0.00534087
0.0010828
0.00653993
0.000567399
0.182673
7.02696e-10
0.195364
4.82149e-10
2.03026e-07
1.84059e-07
0.00108643
0.0077116
2.32529e-07
1.51688e-07
1.15038e-09
6.30689e-09
0.253028
0.233599
0
6.97897e-07
1.03544e-07
1.70557e-07
1.38018e-07
0.0337191
9.18762e-05
4.10392e-05
0.000233036
0.00013072
3.78274e-09
3.76487e-09
2.6008e-09
0.0178042
0.0187916
0.024388
0.233892
0.00256523
8.0042e-07
0.000697317
4.81826e-07
7.93355e-06
7.32437e-06
0.00365138
0.23407
5.61466e-05
0.0213088
3.01555e-05
0.0106774
3.22651e-10
7.15805e-06
5.4682e-05
0.0158347
0.0749145
0.000128915
0.00195945
0.000122783
0.00523779
0.0533439
0.00450785
0.206089
0.000429982
1.36838e-06
6.01468e-07
0.225192
1.9352e-06
7.7401e-07
8.66039e-06
3.96923e-05
0.000592428
1.37007e-07
3.44336e-08
0.246056
1.04617e-05
2.60557e-05
0.00170174
7.76187e-05
0.00103859
0.237767
0.000175764
0.0424989
6.2657e-06
2.32311e-05
1.90248e-10
2.89916e-05
3.44975e-05
2.2996e-09
0.166769
2.68109e-05
1.28736e-07
1.93883e-05
7.25913e-05
0.195254
0.0553055
0.221116
5.75744e-09
0.00715204
0.02878
0.0259231
1.61664e-09
0.0263953
5.20683e-05
0.00215646
0.00318356
0.0016158
0.00169905
2.86857e-05
0.00184257
0.00116199
0.000485113
3.20611e-09
2.26873e-06
0.00932203
0.0102886
0.0129725
0.0127475
0.0215744
0.000130721
0.0279827
0.000103282
9.36761e-05
0.00766058
0.00510081
1.24148e-06
0.00157111
0.00170317
0.00237685
0.00647164
0.00238817
0.00299583
0.00252119
0.000136718
5.09737e-07
4.338e-06
0.00451398
0.0152816
0.0112305
1.49764e-10
0.0013298
0.00108635
1.54443e-05
7.61811e-10
5.60271e-05
0.00765443
3.79485e-06
0.145429
5.53904e-08
4.33865e-06
0.137544
0.000653896
0.0149572
6.47715e-10
0.010907
4.16444e-09
0.111354
1.58142e-08
6.23073e-09
0.0272963
0.023779
0.0182137
0.00193665
0.0018954
0.00217169
2.14286e-06
0.0684837
2.98514e-06
0.129168
5.79952e-05
6.2254e-07
0.00053605
5.99427e-09
0.0180618
0.000801546
0.00060315
4.15312e-05
0.0506249
2.47238e-05
1.73743e-05
0.00014543
0.00192045
0.00152036
0.00126846
0.00125747
4.40334e-08
0.000451
0.00285739
2.27719e-05
0.000288947
0.000439256
0.0140686
0.00176779
0.000366212
0.0122823
0.00142423
0.000242811
0.00015769
0.00025603
1.99315e-06
0.0193802
4.48288e-08
0.000525355
0.0164554
0.0132682
0.000652676
0.00047986
8.77783e-10
0.000664938
0.000566622
1.06148e-05
0.00041381
1.9565e-05
0.000336246
0.000528279
0.000458919
0.000229737
0.000116989
9.40383e-05
1.74134e-06
0.159518
9.97956e-10
0.0214247
1.34153e-06
0.0155609
0.0165773
1.00277e-07
0.0505437
0.0459771
0.0625481
0.0463067
0.0607885
0.00104268
0.000520249
0.000190804
0.00107937
0.000475738
0.00017209
0.000739065
0.0130474
0.00783374
0.00155563
0.0128645
0.0142472
0.0108142
0.00870906
1.05694e-06
0.0172527
0.000815387
0.000746525
0.197805
0.000107522
0.000370056
2.46554e-09
0.0314054
0.0580666
0.0617173
0.000232761
0.000347919
7.7922e-07
0.000154998
0.236962
0.00194213
0.000108331
0.000535137
0.000320672
3.24467e-08
5.38001e-05
0.00117908
4.48764e-07
0.00293821
0.259273
0.0258777
0.000732228
0.0127458
0.000939244
0.000639184
2.2221e-05
0.000461195
0.0225094
0
0.000529549
1.55675e-10
0.227956
1.07318e-08
7.47958e-09
4.79146e-09
0.000162021
0.000187279
0.000208082
0.0269937
1.21289e-06
0.023146
0.000770215
3.84935e-06
0.000258208
7.46926e-06
6.54358e-06
0.000653004
0
0.000826785
0.000499016
6.07798e-06
9.2936e-06
0.000641912
0.000939315
1.65157e-06
3.55224e-06
2.95906e-06
2.43932e-07
0.116971
1.25117e-07
0.0103329
0.258959
0.25396
4.49033e-08
7.83904e-08
0.120553
5.38147e-06
8.13495e-05
0.00650531
5.81262e-08
4.38311e-05
6.69391e-05
9.28086e-08
0.00111061
0.00435626
0.00492359
4.52472e-05
2.73837e-07
0.178087
4.45922e-05
0.1564
0.246962
0.11204
0.00932441
0.0786919
0.104524
0.000436673
0.000224423
1.49296e-05
0.000564034
0.00034807
2.34428e-09
4.43763e-09
2.35852e-09
0.00540487
4.6788e-08
0.00192876
3.07144e-08
0.000129402
0.207776
0.195322
0.177598
7.21981e-05
7.15945e-05
5.24532e-05
0.0833476
4.77341e-09
0.15738
0.00326035
0.000584327
0.00423643
3.86475e-05
0
0.00311219
0.00242742
0.000162975
0.0636043
0.00270558
0.0015434
0.0890284
0.0183758
4.77416e-06
0.000557808
0.000817045
2.39751e-08
0.0313136
0.0560127
0.0376875
0.0343516
0.0206785
0.0177438
2.14919e-05
1.84085e-05
4.82054e-06
3.09029e-06
2.26909e-06
0.0130446
0.015554
6.79357e-06
5.53085e-06
0.00336139
0.0168665
6.9804e-06
3.6231e-06
0.0364477
0.0314342
0.0295634
2.46151e-05
2.01165e-05
0.0129358
1.3315e-05
0.0499337
0.0546038
0.0482108
8.35236e-05
6.89457e-05
4.6553e-05
0.00999987
0.00663638
0.228993
0.000219545
0.000266671
0.000151941
2.86158e-07
0.000215225
0.000115714
0.000122158
0.00382901
0.0580726
0.139103
0.0481125
0.139971
0.00127887
0.000227166
0.000201348
0.000141742
0.000396085
0.000839661
0.000511549
0.000582453
9.97711e-05
8.14159e-05
4.37807e-07
4.73738e-07
0.00139046
3.71061e-05
7.3782e-05
0.000257288
7.83604e-05
0
0.000101693
0.0057487
0.0663975
0.0558778
0.05834
0.201158
0.192962
0.186991
0.00456845
8.61005e-06
0.00510379
0.00379275
0.0849337
0.0750211
0.0806895
0.106866
1.79328e-07
5.43818e-09
6.83176e-07
0.11569
0.10353
6.54082e-07
0.00640933
0.00478404
0.000273562
0.0516016
0.0137643
2.55259e-08
0.0753233
0.0109565
1.99942e-05
4.0865e-05
1.64169e-05
9.41363e-06
0.000152339
1.12696e-05
0.0223934
0.109868
7.13714e-05
0.0186051
0.0784242
0.0390134
0.0226622
0.0890528
2.71701e-07
0.0717754
0.00017346
0.0607693
0.0587762
0.0197161
0.161893
0.00444661
0.00258422
1.65889e-05
1.84224e-06
1.55816e-08
0.000207191
0.000106203
7.89195e-09
3.16883e-05
0.0267349
6.78315e-08
0.00231154
1.27728e-07
0.00268844
0.0122244
0.0107073
0.0124409
0.157903
0.151527
3.77223e-09
8.7163e-05
0.000113464
0.00494082
0.0692543
0.056805
3.67864e-09
0.00234563
2.71594e-06
4.97805e-05
0.00265427
0.00968223
0.00093952
0
0.17246
0.0058945
0.00463121
0.174833
0.00493013
0.00016647
0.0266884
0.203257
0.094832
0.00373207
0.00234887
0.00275034
0
0.000762324
6.64768e-07
1.3364e-07
0.00886993
0.00731377
0.000854899
0.00275925
0.00943907
0.00195035
1.86001e-09
3.56833e-09
1.4677e-09
0.0267603
0.00124629
3.09878e-08
0.0129951
9.34047e-10
0.0185944
0.00161449
0.0012056
3.72633e-10
0.00402852
0.0074247
0.00564248
0.00753946
8.54193e-10
3.48676e-10
0.168783
0.14793
0.172115
4.70367e-06
0.025255
8.83643e-08
2.92503e-08
0.0390588
0.0309271
0.140201
0.0313675
7.51368e-06
5.32683e-05
6.20757e-08
0.0113238
2.19982e-06
0.0119807
0.00796106
0.0647849
0.0217744
0.011749
0.0690457
3.78557e-05
2.44503e-05
1.57366e-08
0.00591225
0.000304883
0.00724647
0.00772832
0.0148751
2.04151e-08
0.000228048
0.00950556
0.00467695
0.000851452
0.000312496
0.0132947
0.000204087
0.000232557
3.28119e-07
1.5061e-06
0.0085873
0.00825252
0.00664243
0.010923
0.0356746
0.0131554
0.0230049
0.0134696
0.0152779
0.00712369
0.000448304
0.011813
0.00335114
0.0104576
2.09345e-06
1.77386e-08
0.000250412
2.82583e-05
0.000273498
0.00599484
0.0105774
0.00114704
0.0469654
0.0563905
0.0390093
2.08668e-06
1.02267e-06
0.00200289
1.46656e-06
1.07844e-06
0
7.97843e-09
1.38957e-05
9.35519e-09
5.0411e-08
0.0984
0.0123255
0
3.05734e-10
2.59497e-05
0.000454875
0
0.0237972
6.96852e-05
1.07144e-07
2.94067e-10
1.48188e-07
6.1038e-08
0.00141632
1.35442e-07
0
0.018378
6.16754e-05
2.26419e-05
0.00973311
0.000102622
9.6598e-05
0.00283796
1.49927e-05
0.0527491
1.59868e-08
0.094029
0.00127281
0.0186087
0.0138655
0.00161336
3.15826e-07
0.0360206
3.44949e-09
0.00268293
0.0191369
0.000137282
3.79305e-07
0.00276148
1.96397e-07
0.00160299
0.0402764
9.19127e-06
1.84215e-07
4.48381e-10
5.22562e-05
0.00359628
0.0439113
0.175375
8.07507e-10
0.0287856
0.0674571
0.160471
0.0809089
0.0166006
1.991e-05
0.00160933
0.0600249
0.0380994
0.0976937
2.65906e-06
4.74923e-06
1.05178e-09
3.95907e-06
4.10164e-07
2.50188e-06
1.66512e-05
9.80356e-07
0.118951
0.13059
0.0217175
3.71636e-09
0.00243683
0.000642781
0.0420532
0.0197115
1.06233e-05
1.42889e-06
0.000108138
0.0403062
0
2.18357e-08
1.25079e-08
0.0156334
1.28508e-08
0.11315
7.88935e-09
1.32858e-05
3.16178e-06
0.00647388
0.0164126
0.000618951
0
0.0289972
1.75963e-09
2.18676e-07
0.000706907
0.00881279
8.51561e-05
0.0131358
0.0635762
0.1201
0.0015858
2.45168e-09
0.000655052
0.00897309
0.00115168
0.000932569
0.0100807
3.74137e-05
1.59717e-09
1.41338e-07
0
7.83675e-05
3.49478e-09
0
0.0540547
3.66083e-05
0.00309108
5.42357e-09
0
3.94625e-09
0
0.00433218
0.205573
4.90715e-05
1.4006e-08
0.000469237
4.30354e-06
2.17519e-09
0.170058
0.00134805
0.000401977
0
0.000297764
0.00115216
0.20796
0.000690715
0.00989594
1.38074e-05
0.000391816
0.00311605
0.000324312
0.00367032
0.00147462
0.000974954
0.00640036
6.45821e-05
0.22994
0.000445331
4.21057e-09
0.0408682
2.86152e-07
0.00662404
0.000853983
5.52069e-09
0.0163775
2.15458e-09
0.229773
0.0123366
0.00113196
1.32345e-05
0.0833772
2.70582e-05
0.256602
9.0685e-05
0.000145613
0.00561324
1.77172e-06
0.00636345
5.22669e-06
0.0696415
7.25458e-05
3.30153e-08
0.240769
0.155852
0.00236157
0.0122228
0.000499576
0.0140524
5.07728e-06
0.0473312
2.55442e-05
6.39971e-06
1.50215e-08
4.55727e-05
0.000549953
1.52804e-06
2.72783e-08
8.16482e-06
5.25154e-05
0.00274446
0.0242554
0.0224484
0.00578161
6.87747e-05
0.000328487
0.00526006
9.98769e-07
0.00741567
4.5752e-05
6.60834e-05
0.110289
0.0267274
0.00802791
0.055039
0.135738
0.000203178
0.0374328
0.0852873
0.00868838
4.74533e-07
0.126423
0.0306696
0.00010441
0.0283611
6.39252e-09
0.0919309
9.43201e-05
2.0238e-07
0.0292733
8.3351e-05
2.90133e-07
6.453e-08
2.28001e-08
0.015249
8.36927e-05
5.86015e-05
0.000674507
0.0327693
0.0246723
0.0237275
1.75945e-10
0.000156587
0.0292278
0.0513334
0.00386762
0.048446
2.40028e-08
0.0541034
4.553e-08
1.12946e-08
0.0333721
0
6.98503e-07
0.0291
0.000393711
0.0445174
2.24995e-10
0.030593
1.16076e-08
0
0.0465872
1.94038e-09
6.25644e-09
0.011682
0.004351
0.196713
2.92539e-05
1.27085e-06
0.000335005
0.00210044
0.00429012
0.000458967
2.63891e-07
0.000187137
0.00169587
0.00284924
6.97708e-05
0.000371572
0.103171
0.000873059
0.000774881
1.81065e-05
3.53209e-06
0.00395065
4.10312e-09
0.12728
0.00216858
0.000553541
2.18591e-08
0.0751055
0.000924698
0.0106319
0.124221
0.157098
2.84331e-05
0.00821211
4.44263e-05
0.104901
0.138061
8.00354e-05
0.00231672
0.00371791
2.96438e-08
0.000658463
0.000551662
3.07117e-10
0.017724
1.61152e-10
1.98518e-08
0.0250703
0
9.9357e-05
5.49009e-09
0.00544651
0.0887635
1.99463e-07
0.000230529
0.000972204
0.00617732
3.71533e-05
1.34298e-05
0.0040325
7.20673e-06
9.55043e-07
7.21029e-09
0.00329457
0.0162347
0.269968
3.82365e-09
3.94364e-10
0.0695578
1.25966e-07
5.2004e-10
0.0308973
3.66867e-06
0.000700627
4.84402e-06
4.68395e-08
0.238926
0.0895282
1.21369e-07
9.92132e-09
0.113181
5.1319e-10
8.24276e-10
1.20193e-09
3.45765e-09
1.70972e-05
1.1142e-07
8.30554e-10
0.00335427
0.0341193
0.0344042
0.00701033
8.77477e-08
3.44567e-09
0.038262
0.0376684
0.05973
0.00986889
0.00694706
0.0611127
7.70203e-07
7.04846e-05
0.000276678
2.40763e-05
6.82725e-06
2.58157e-06
2.85077e-05
0.000366255
0.0747082
0.046776
0.0470639
2.40561e-06
0.000455385
4.22471e-06
6.89994e-05
4.88815e-07
0.0163252
0.000219441
8.29257e-08
0.00441707
0.000466372
0.0072681
0.0334206
6.34518e-08
0.000130358
0.00451707
0
0.00231111
9.88994e-07
0.000104758
1.1918e-09
0.00154974
0.00032487
0.00294156
0.000144406
0.000127462
0.00297122
2.01891e-10
0.0345776
0.0920683
4.45837e-09
0.241838
2.99337e-10
1.6986e-05
0.0429664
0.0225366
0.0464546
3.61598e-05
2.83862e-05
0.0344867
0.00147363
0.0173716
0.00724052
1.54419e-10
0
0.00153157
0.165477
0.0140255
0.0114961
0.184266
0.000802502
0.0194566
1.73511e-08
9.42728e-07
7.79481e-06
0.00574409
1.60818e-10
0.00016437
0.0122793
4.22787e-08
0.00178349
0.0181077
0.00021946
1.23039e-05
1.0753e-07
5.64519e-10
0.00643144
0.0369926
1.62942e-05
0.0377292
4.28937e-10
2.98894e-06
0.000260857
0.000809503
1.06207e-08
0.00325458
0.00400917
0.00013676
0.0490989
1.59881e-05
3.70571e-07
6.74269e-10
0.00751961
3.44024e-08
0.000144726
0.00022432
0.000222431
2.57688e-05
0.0835384
1.35064e-08
8.65711e-08
3.44355e-05
0
0.000177627
0.000292548
0.000251796
0.000396857
3.14684e-06
1.69976e-05
0.162897
0.0209347
0.00143602
5.21779e-10
0.000362559
0.000114001
0.0226532
1.3075e-05
6.99987e-06
2.5005e-05
0.0319527
0.145141
3.58635e-09
0.0502894
0.0341511
1.17963e-09
2.78682e-06
0.000691212
0.000952933
0
0.000124415
0.0194009
0.000237234
2.13313e-05
4.97652e-09
0.000122615
9.63193e-08
0.00139704
0.0518228
1.90441e-05
1.92647e-05
0.0312645
1.02954e-05
3.58091e-08
0.119509
0.0163287
0.0153703
0.142148
8.84326e-06
6.4735e-07
0.201791
0.162562
0.000387445
1.09388e-08
1.54689e-07
0.000183686
8.92506e-05
0.0498458
0.000215648
6.31621e-08
0.0116528
2.15204e-08
0.00196596
0.00820463
7.89682e-09
0.00590564
0.000892355
0.123952
0.131599
0.0013436
0.201249
0
1.42095e-05
7.57836e-06
1.18797e-05
0.0218806
8.29063e-10
0.156215
0.00145416
0.000680824
1.05368e-06
1.07051e-07
0.00132234
0.00105351
0.186247
1.25774e-09
3.03049e-08
3.36058e-08
0.0212112
0
1.11137e-07
0.0391095
0.000530131
0.0420754
0.0435634
0.00011734
5.99659e-05
4.95913e-09
0.000992429
0.00774091
3.60485e-06
0.000314733
8.66608e-09
0.0854041
1.99344e-06
0.0587394
0.0295159
0.0316922
0.126729
0.000119423
0.000239635
1.97057e-05
0.000203003
0.225404
9.13791e-06
0.00887311
1.34302e-07
3.89595e-07
0.0660982
1.87199e-09
5.24349e-09
2.41277e-07
0.000193936
0.0407984
0.00807112
0.000304784
0.00410493
0.051735
0.000471776
0.0267702
0.0260122
0.0011923
1.94422e-08
0.00407535
0.0570532
0.0108624
0.000317287
0
1.59297e-08
5.55979e-06
0.000139725
0.0274157
7.61223e-08
5.47311e-05
3.4583e-07
0.00623392
0.00843973
8.12655e-06
1.29953e-09
0.0552319
3.0319e-05
2.6662e-09
0
0.00655752
0.0509066
2.39538e-05
9.98007e-08
4.03939e-05
3.20352e-05
0.000196304
0.000106107
0.000578154
0.0900212
0.0373641
3.04451e-06
0.0158511
1.74888e-08
0.00102678
0.0056734
0
0.00170211
0
7.83844e-09
0.0618997
0.000386988
0.0255009
8.05395e-10
4.60417e-07
0.00228843
0.0179333
0.0112946
1.46681e-05
1.06614e-05
1.00119e-05
0.0719255
0.0237263
2.57911e-09
0.0455976
0.0496753
3.46692e-05
0.00143435
7.07828e-05
2.87097e-05
0.00206388
8.27766e-08
0.0747694
1.56771e-06
0.000125533
0.000147153
2.46218e-06
1.42611e-06
1.84329e-05
0.000184491
3.93209e-08
3.91811e-06
0.0106668
0.0656406
1.15219e-08
1.23087e-05
0.0209865
0.163591
2.04973e-06
0.0018192
0.0153972
8.11682e-05
0.265203
0.011687
0.00106996
0.200212
0.0103758
0.189716
0.00525996
0.000317534
2.44167e-05
0.00109677
0.00176894
0.048303
0.0490276
0.00279918
1.32481e-05
8.87904e-09
0.000380484
0.174031
0.0262262
7.25664e-07
3.66917e-06
6.84746e-05
1.07301e-06
9.45185e-07
0.0564335
0.0064203
1.15918e-09
0.0218847
0.00219934
5.27932e-06
0.00882295
0.000188418
0.000208713
1.06313e-05
3.77183e-07
0.0147003
0.00420844
5.12481e-06
0.0106691
0.00715417
0.0189325
0.000311635
0.00804172
0.000249909
0.000247226
0
0.00045124
0.000317196
1.34141e-07
3.07631e-08
0.0166694
3.01864e-05
9.48252e-08
9.35329e-09
0.000371492
0.000979115
5.50674e-05
0.197248
0.0202425
1.61369e-10
0.213099
0.00106645
0.00051046
5.35216e-08
5.12666e-07
0.000241485
0.00227066
0.0394955
0.0348166
0.00303744
1.90286e-06
0.0206143
0.187932
2.38766e-08
1.86561e-08
0.000719026
0.000631751
0.000164298
1.92484e-08
0.0477915
0.000347582
0.000125373
9.19357e-09
1.41712e-05
0
8.02459e-06
5.46668e-09
3.80082e-07
0.00524341
0.0167727
0.0254703
0.0852806
0.167487
0.0130299
5.13367e-06
7.0344e-08
0.155194
6.35756e-06
1.77187e-06
1.16162e-09
0.0154599
7.5529e-07
0.00119149
0.00079056
0
0
0.0175899
0.000304151
0
0.000464461
0.000369674
8.64559e-05
0.0270816
0.00900648
1.44805e-10
0.1122
0.0293954
0.0404651
7.08049e-07
0.0100738
0.00042652
0.0016187
2.26234e-10
2.19848e-10
0.0189349
0.00297424
0.0030969
0.000879958
0.00207725
4.63868e-10
1.85743e-09
2.31545e-09
0.00687284
1.18306e-09
0.00383779
0.00897511
0.201755
1.8927e-09
1.176e-09
0.000295023
1.16146e-08
0.0012209
6.32698e-05
0.000605682
1.89709e-05
0.144326
0.000248337
0.139909
0.000262768
0.135475
3.24807e-07
0.000167761
0.000452731
0.158638
0.000313291
0.00301315
0.0074857
3.28615e-05
0.00130174
0.00878177
5.66458e-05
0.00286654
1.34975e-08
0.00417524
2.63315e-06
9.69196e-05
2.22467e-05
2.092e-06
0.000289829
2.63943e-09
1.61701e-07
0.126145
0.123511
1.2813e-05
8.09259e-09
0.000574832
0.00271414
0.0304571
0.119631
0.219631
1.21537e-08
2.61847e-08
3.91751e-08
9.62761e-08
0.000357543
3.87041e-09
0.0068144
0.000206972
6.16063e-06
7.84873e-06
0.00013373
8.86672e-05
0.000125245
0.000119474
0.000186784
0.0580421
5.53458e-05
0.0445965
0.0465342
1.01498e-06
6.24358e-05
3.76588e-05
5.84985e-05