# vtk DataFile Version 2.0
Unstructured Grid by M++
ASCII
DATASET UNSTRUCTURED_GRID
POINTS 4072 float
  0.609375   0.843750 0
  0.562500   0.843750 0
  0.531250   0.843750 0
  0.875000   0.828125 0
  0.984375   0.828125 0
  0.953125   0.828125 0
  0.937500   0.828125 0
  0.843750   0.828125 0
  0.812500   0.828125 0
  0.781250   0.828125 0
  0.765625   0.828125 0
  0.734375   0.828125 0
  0.703125   0.828125 0
  0.671875   0.828125 0
  0.640625   0.828125 0
  0.609375   0.828125 0
  0.593750   0.828125 0
  0.562500   0.828125 0
  0.546875   0.828125 0
  0.531250   0.828125 0
  0.515625   0.828125 0
  0.968750   0.812500 0
  0.937500   0.812500 0
  0.921875   0.812500 0
  0.890625   0.812500 0
  0.859375   0.812500 0
  0.828125   0.812500 0
  0.796875   0.812500 0
  0.765625   0.812500 0
  0.750000   0.812500 0
  0.718750   0.812500 0
  0.687500   0.812500 0
  0.656250   0.812500 0
  0.625000   0.812500 0
  0.593750   0.812500 0
  0.578125   0.812500 0
  0.546875   0.812500 0
  0.531250   0.812500 0
  0.515625   0.812500 0
  0.984375   0.796875 0
  0.562500   0.015625 0
  0.953125   0.796875 0
  0.921875   0.796875 0
  0.906250   0.796875 0
  0.875000   0.796875 0
  0.843750   0.796875 0
  0.812500   0.796875 0
  0.781250   0.796875 0
  0.750000   0.796875 0
  0.734375   0.796875 0
  0.703125   0.796875 0
  0.671875   0.796875 0
  0.640625   0.796875 0
  0.609375   0.796875 0
  0.578125   0.796875 0
  0.562500   0.796875 0
  0.531250   0.796875 0
  0.515625   0.796875 0
  0.968750   0.781250 0
  0.546875   0.000000 0
  0.937500   0.781250 0
  0.906250   0.781250 0
  0.890625   0.781250 0
  0.859375   0.781250 0
  0.828125   0.781250 0
  0.796875   0.781250 0
  0.765625   0.781250 0
  0.734375   0.781250 0
  0.718750   0.781250 0
  0.687500   0.781250 0
  0.656250   0.781250 0
  0.625000   0.781250 0
  0.593750   0.781250 0
  0.562500   0.781250 0
  0.546875   0.781250 0
  0.515625   0.781250 0
  0.984375   0.765625 0
  0.953125   0.765625 0
  0.921875   0.765625 0
  0.890625   0.765625 0
  0.875000   0.765625 0
  0.843750   0.765625 0
  0.812500   0.765625 0
  0.781250   0.765625 0
  0.750000   0.765625 0
  0.718750   0.765625 0
  0.703125   0.765625 0
  0.671875   0.765625 0
  0.640625   0.765625 0
  0.609375   0.765625 0
  0.578125   0.765625 0
  0.593750   0.750000 0
  0.562500   0.765625 0
  0.546875   0.765625 0
  0.531250   0.765625 0
  0.562500   0.750000 0
  0.968750   0.750000 0
  0.937500   0.750000 0
  0.906250   0.750000 0
  0.875000   0.750000 0
  0.859375   0.750000 0
  0.828125   0.750000 0
  0.796875   0.750000 0
  0.765625   0.750000 0
  0.734375   0.750000 0
  0.703125   0.750000 0
  0.687500   0.750000 0
  0.671875   0.750000 0
  0.656250   0.750000 0
  0.625000   0.750000 0
  0.546875   0.750000 0
  0.531250   0.750000 0
  0.515625   0.750000 0
  0.562500   0.734375 0
  0.984375   0.734375 0
  0.953125   0.734375 0
  0.921875   0.734375 0
  0.890625   0.734375 0
  0.859375   0.734375 0
  0.843750   0.734375 0
  0.812500   0.734375 0
  0.781250   0.734375 0
  0.750000   0.734375 0
  0.718750   0.734375 0
  0.687500   0.734375 0
  0.671875   0.734375 0
  0.656250   0.734375 0
  0.640625   0.734375 0
  0.546875   0.734375 0
  0.531250   0.734375 0
  0.515625   0.734375 0
  0.562500   0.718750 0
  0.968750   0.718750 0
  0.937500   0.718750 0
  0.906250   0.718750 0
  0.875000   0.718750 0
  0.843750   0.718750 0
  0.796875   0.718750 0
  0.765625   0.718750 0
  0.734375   0.718750 0
  0.703125   0.718750 0
  0.687500   0.718750 0
  0.671875   0.718750 0
  0.656250   0.718750 0
  0.625000   0.718750 0
  0.546875   0.718750 0
  0.531250   0.718750 0
  0.515625   0.718750 0
  0.562500   0.703125 0
  0.953125   0.703125 0
  0.921875   0.703125 0
  0.890625   0.703125 0
  0.859375   0.703125 0
  0.828125   0.703125 0
  0.781250   0.703125 0
  0.750000   0.703125 0
  0.718750   0.703125 0
  0.687500   0.703125 0
  0.656250   0.703125 0
  0.546875   0.703125 0
  0.531250   0.703125 0
  0.515625   0.703125 0
  0.984375   0.687500 0
  0.937500   0.687500 0
  0.921875   0.687500 0
  0.906250   0.687500 0
  0.875000   0.687500 0
  0.843750   0.687500 0
  0.812500   0.687500 0
  0.765625   0.687500 0
  0.734375   0.687500 0
  0.703125   0.687500 0
  0.671875   0.687500 0
  0.640625   0.687500 0
  0.593750   0.687500 0
  0.562500   0.687500 0
  0.546875   0.687500 0
  0.531250   0.687500 0
  0.515625   0.687500 0
  0.968750   0.671875 0
  0.937500   0.671875 0
  0.921875   0.671875 0
  0.906250   0.671875 0
  0.890625   0.671875 0
  0.859375   0.671875 0
  0.828125   0.671875 0
  0.796875   0.671875 0
  0.765625   0.671875 0
  0.750000   0.671875 0
  0.718750   0.671875 0
  0.687500   0.671875 0
  0.656250   0.671875 0
  0.625000   0.671875 0
  0.593750   0.671875 0
  0.578125   0.671875 0
  0.546875   0.671875 0
  0.531250   0.671875 0
  0.515625   0.671875 0
  0.984375   0.656250 0
  0.953125   0.656250 0
  0.937500   0.656250 0
  0.921875   0.656250 0
  0.906250   0.656250 0
  0.875000   0.656250 0
  0.843750   0.656250 0
  0.812500   0.656250 0
  0.781250   0.656250 0
  0.750000   0.656250 0
  0.734375   0.656250 0
  0.703125   0.656250 0
  0.671875   0.656250 0
  0.640625   0.656250 0
  0.609375   0.656250 0
  0.578125   0.656250 0
  0.562500   0.656250 0
  0.531250   0.656250 0
  0.515625   0.656250 0
  0.968750   0.640625 0
  0.937500   0.640625 0
  0.906250   0.640625 0
  0.890625   0.640625 0
  0.859375   0.640625 0
  0.828125   0.640625 0
  0.796875   0.640625 0
  0.765625   0.640625 0
  0.734375   0.640625 0
  0.718750   0.640625 0
  0.687500   0.640625 0
  0.656250   0.640625 0
  0.625000   0.640625 0
  0.593750   0.640625 0
  0.562500   0.640625 0
  0.546875   0.640625 0
  0.515625   0.640625 0
  0.984375   0.625000 0
  0.953125   0.625000 0
  0.921875   0.625000 0
  0.890625   0.625000 0
  0.875000   0.625000 0
  0.843750   0.625000 0
  0.812500   0.625000 0
  0.781250   0.625000 0
  0.750000   0.625000 0
  0.734375   0.625000 0
  0.718750   0.625000 0
  0.703125   0.625000 0
  0.671875   0.625000 0
  0.640625   0.625000 0
  0.609375   0.625000 0
  0.578125   0.625000 0
  0.562500   0.625000 0
  0.546875   0.625000 0
  0.531250   0.625000 0
  0.968750   0.609375 0
  0.937500   0.609375 0
  0.906250   0.609375 0
  0.875000   0.609375 0
  0.859375   0.609375 0
  0.828125   0.609375 0
  0.796875   0.609375 0
  0.765625   0.609375 0
  0.750000   0.609375 0
  0.734375   0.609375 0
  0.718750   0.609375 0
  0.703125   0.609375 0
  0.687500   0.609375 0
  0.656250   0.609375 0
  0.625000   0.609375 0
  0.593750   0.609375 0
  0.562500   0.609375 0
  0.546875   0.609375 0
  0.531250   0.609375 0
  0.515625   0.609375 0
  0.984375   0.593750 0
  0.953125   0.593750 0
  0.921875   0.593750 0
  0.890625   0.593750 0
  0.859375   0.593750 0
  0.843750   0.593750 0
  0.812500   0.593750 0
  0.781250   0.593750 0
  0.750000   0.593750 0
  0.734375   0.593750 0
  0.718750   0.593750 0
  0.687500   0.593750 0
  0.671875   0.593750 0
  0.640625   0.593750 0
  0.609375   0.593750 0
  0.578125   0.593750 0
  0.562500   0.593750 0
  0.546875   0.593750 0
  0.531250   0.593750 0
  0.515625   0.593750 0
  0.968750   0.578125 0
  0.937500   0.578125 0
  0.906250   0.578125 0
  0.875000   0.578125 0
  0.890625   0.562500 0
  0.843750   0.578125 0
  0.828125   0.578125 0
  0.796875   0.578125 0
  0.765625   0.578125 0
  0.734375   0.578125 0
  0.703125   0.578125 0
  0.671875   0.578125 0
  0.656250   0.578125 0
  0.656250   0.562500 0
  0.625000   0.578125 0
  0.640625   0.562500 0
  0.593750   0.578125 0
  0.562500   0.578125 0
  0.546875   0.578125 0
  0.531250   0.578125 0
  0.515625   0.578125 0
  0.859375   0.562500 0
  0.828125   0.562500 0
  0.781250   0.562500 0
  0.750000   0.562500 0
  0.718750   0.562500 0
  0.687500   0.562500 0
  0.609375   0.562500 0
  0.578125   0.562500 0
  0.562500   0.562500 0
  0.546875   0.562500 0
  0.531250   0.562500 0
  0.515625   0.562500 0
  1.000000   0.812500 0
  0.578125   0.031250 0
  0.875000   0.546875 0
  0.625000   0.546875 0
  0.218750   0.000000 0
  0.640625   0.781250 0
  0.828125   0.093750 0
  0.031250   0.531250 0
  0.296875   0.328125 0
  0.296875   0.312500 0
  0.281250   0.312500 0
  0.765625   0.312500 0
  0.031250   0.859375 0
  0.093750   0.265625 0
  0.109375   0.250000 0
  0.187500   0.671875 0
  0.421875   0.640625 0
  0.031250   0.062500 0
  0.140625   0.125000 0
  0.562500   0.906250 0
  0.125000   0.437500 0
  0.203125   0.937500 0
  0.125000   0.421875 0
  0.140625   0.406250 0
  0.093750   0.437500 0
  0.109375   0.421875 0
  0.093750   0.421875 0
  0.109375   0.406250 0
  0.328125   0.125000 0
  0.750000   0.906250 0
  0.328125   0.109375 0
  0.750000   0.890625 0
  0.312500   0.125000 0
  0.734375   0.906250 0
  0.281250   0.343750 0
  0.265625   0.359375 0
  0.500000   0.796875 0
  0.078125   0.015625 0
  0.062500   0.015625 0
  0.484375   0.796875 0
  0.484375   0.781250 0
  0.062500   0.000000 0
  0.015625   0.250000 0
  0.062500   0.046875 0
  0.484375   0.828125 0
  0.484375   0.812500 0
  0.062500   0.031250 0
  0.281250   0.671875 0
  0.062500   0.234375 0
  0.328125   0.765625 0
  0.312500   0.750000 0
  0.015625   0.671875 0
  0.781250   0.187500 0
  0.015625   0.265625 0
  0.453125   0.250000 0
  0.453125   0.234375 0
  0.031250   0.265625 0
  0.046875   0.250000 0
  0.093750   0.015625 0
  0.265625   0.656250 0
  0.734375   0.281250 0
  0.156250   0.015625 0
  0.062500   0.265625 0
  0.046875   0.281250 0
  0.031250   0.281250 0
  0.343750   0.781250 0
  0.328125   0.781250 0
  0.265625   0.687500 0
  0.265625   0.703125 0
  0.156250   0.109375 0
  0.578125   0.890625 0
  0.484375   0.984375 0
  0.062500   0.203125 0
  0.328125   0.718750 0
  0.343750   0.734375 0
  0.343750   0.750000 0
  0.453125   0.500000 0
  0.437500   0.500000 0
  0.234375   0.093750 0
  0.171875   0.375000 0
  0.437500   0.531250 0
  0.468750   0.546875 0
  0.453125   0.546875 0
  0.187500   0.015625 0
  0.187500   0.000000 0
  0.609375   0.781250 0
[...]
CELL_DATA 7648
SCALARS scalar_value float 1
LOOKUP_TABLE default
0.176688
0.164605
0.149891
0.170957
5.73343e-08
3.73553e-08
3.85769e-08
2.58561e-08
0.1603
0.146527
0.143228
7.97033e-08
3.74933e-08
6.57675e-08
0.255547
0.253218
0.248724
0.25107
0.0239475
0.0229993
0.0258914
0.0204272
0.000103738
0.00302187
0.00321091
0.00442047
0.0025994
0.0442301
0.0385949
2.18146e-05
2.44942e-05
3.46295e-05
1.50242e-05
5.32291e-05
5.82898e-05
7.94847e-05
3.69348e-05
1.07195e-05
1.23403e-05
1.70931e-05
0.000210032
0.00043178
0.0122967
0.00900383
0.00725459
0.000831022
0.000643151
0.000611185
0.000572033
0.00123024
2.96171e-05
0.00150115
0.00116629
0.00110108
9.5876e-05
0.00398611
6.05945e-05
6.38765e-05
0.00121577
0.0016952
0.00235524
0.00858892
0.000641663
1.50786e-05
1.94001e-05
5.93315e-08
6.82773e-08
0.00118563
0.0121883
2.72775e-06
0.147339
0
0.0268993
0.0273804
8.85616e-05
3.51582e-08
0.0817556
6.36506e-08
3.73052e-05
0.026865
0.0247297
7.5989e-10
2.67687e-06
4.21975e-08
0.000115968
4.02791e-05
0.122349
0.116239
1.96326e-06
0
5.0801e-05
2.47737e-08
0.027375
0.0318313
1.39243e-08
0.00175743
0.000909606
0.00315246
0.00121364
0.000846564
0.0258311
0.000821585
0.0241288
0.0227245
0.00191671
0.00742327
0.155236
0.000123413
6.51637e-05
9.47975e-05
0.00166093
0.000205727
0.00015145
2.78321e-08
0.0384443
2.27406e-08
0.0434178
0.0330286
0.000598268
3.79592e-08
2.47594e-08
1.19961e-10
1.29157e-08
0.00459106
3.42362e-09
6.50994e-09
3.42737e-09
0.0222884
0.0157289
0.024535
2.72466e-08
0.00306676
1.52506e-08
7.72058e-07
0.195999
3.18573e-07
0.0969456
0.00141424
0.000100618
0.000589355
5.45278e-05
0.00046932
0.000459087
4.42084e-05
0.00039112
0.000970097
1.112e-08
0.00106821
1.49858e-05
6.0695e-06
4.37728e-06
0.00525173
0.00650563
0.00803837
0
1.5656e-10
9.28179e-07
6.63706e-05
0.0013449
0.00150556
0
0.02628
0.0295447
0.0340022
0.00174903
0.00110809
3.52322e-05
0.00151434
0.00616668
4.54817e-08
1.96182e-08
0.0050912
0.000236399
5.74991e-10
0.000173111
0.000430672
2.64174e-07
0.00356228
0.0327605
0.00355316
0.00233193
0.0297946
8.21255e-05
0.0584982
4.06708e-09
0.00537956
5.22071e-05
1.49088e-09
3.0972e-09
0.0237986
2.37173e-09
0.0140814
2.92498e-05
1.22362e-06
0.000349575
2.17575e-05
2.32533e-05
1.63259e-05
7.23617e-08
9.71402e-08
8.88297e-08
1.9133e-05
0.012963
2.89232e-05
3.02702e-05
0.00424436
0.0027527
2.21244e-07
1.11019e-07
1.7541e-07
0.000699335
0.00103198
0.00144503
0.000947128
0.00942748
0.0419805
0
3.79677e-08
5.46088e-10
0.00280892
0.00246839
0.0085641
0.00600317
0.000117026
0.00956613
1.99665e-05
0.0022527
0.00194846
0.0116573
0.0133597
2.74778e-06
4.74918e-06
0.0138986
0.0463241
4.91285e-06
3.30825e-06
2.66848e-06
2.62409e-06
0.00815317
2.44596e-09
0.00813873
0
0.138697
3.39737e-06
2.50964e-06
0.0125691
0.152348
0.0159751
0.0118839
1.89517e-05
0.0184466
4.05856e-05
0.00232147
0.00271636
0.00223378
0.0877729
0.0537218
4.05405e-06
2.16133e-06
0.0189834
0.0217083
0.0204805
0.00103489
0.000752694
0.000162304
0.015461
6.20011e-05
0.00329779
3.27972e-05
0.0270678
0.000491466
0.00818369
1.30633e-10
3.68947e-08
6.41196e-10
8.93194e-05
1.59851e-07
2.07394e-05
0.110836
0.127188
0.000187842
0.15204
3.26932e-05
1.81164e-10
0.151279
2.73196e-05
1.22026e-10
9.78702e-05
1.04487e-06
0.0011276
2.25225e-06
8.15382e-08
0.000259973
2.47073e-07
0.0722127
0.0689142
2.51424e-07
0.0752935
6.52301e-09
4.72093e-05
0.0018879
0.191184
1.08077e-09
8.82995e-06
0.0143004
0.0120145
0.0107677
0.0284159
5.01681e-05
0.0765902
0.0698998
0.00142778
1.36894e-07
8.61793e-07
6.08227e-07
0.02354
0.0421969
8.65336e-07
0.0372585
0.0260659
0.0321788
0.0103509
0.170099
0.00757787
0.00371941
0.00923043
0.00278877
0.0064017
0.00499805
0.00533711
0.00182785
0.00484655
0.00117253
0.201613
3.30809e-09
0.213203
2.31619e-09
7.25602e-07
6.53777e-07
0.00105034
0.0108227
8.38844e-07
5.57907e-07
9.80683e-10
2.70217e-08
0.257493
0.245184
4.23339e-10
7.06251e-07
7.06174e-08
1.16456e-07
9.54963e-08
0.0256345
0.000195133
2.85013e-05
0.000455925
9.20099e-05
1.72126e-08
1.69327e-08
1.19131e-08
0.0175601
0.0181831
0.0232513
0.21783
0.00412246
2.20082e-06
0.00122942
3.75392e-07
6.19761e-06
5.60721e-06
0.0058615
0.213144
4.21644e-05
0.0328204
2.28116e-05
0.0176535
1.48115e-09
5.41701e-06
9.83267e-05
0.0118798
0.0642578
0.000268898
0.00233321
0.000208597
0.00896499
0.0564562
0.0078359
0.182968
0.000303299
4.00347e-06
1.84335e-06
0.219353
5.83988e-06
2.41681e-06
2.36716e-05
4.16795e-05
0.000507401
5.03354e-07
1.19222e-07
0.240604
1.10102e-05
6.70174e-05
0.00279164
0.000133283
0.001788
0.226642
0.000126808
0.0610302
1.78952e-05
2.49974e-05
9.22814e-10
6.02962e-05
6.93739e-05
9.32523e-09
0.152005
5.27744e-05
8.69856e-08
3.91978e-05
5.03685e-05
0.175949
0.0766053
0.205237
2.31771e-08
0.00552434
0.0217191
0.0195138
7.72659e-09
0.0198883
0.000105109
0.00157477
0.00494285
0.00162394
0.00123664
1.97689e-05
0.00133979
0.000842702
0.000347525
2.47499e-09
7.03114e-06
0.0138602
0.00958948
0.0185355
0.00972752
0.0162115
0.000264723
0.0211411
0.000212531
0.000189736
0.0109545
0.00765115
4.1287e-06
0.00160777
0.00124195
0.00230339
0.00941469
0.00174774
0.00219711
0.00184652
0.000244252
1.44838e-06
1.27469e-05
0.00408947
0.0207271
0.0149946
1.4416e-10
0.00096773
0.000788663
1.06814e-05
7.21045e-10
3.92246e-05
0.0125793
2.89633e-06
0.12252
3.85819e-08
3.36569e-06
0.115838
0.000611908
0.0191181
6.38018e-10
0.016325
4.20126e-09
0.0912277
1.58053e-08
6.41864e-09
0.0392514
0.0347396
0.027381
0.00316301
0.00194689
0.00228352
1.44119e-06
0.0537013
2.00701e-06
0.10751
0.000110891
4.17269e-07
0.000580894
2.61729e-08
0.0222122
0.000608278
0.00045786
8.79349e-05
0.0541664
2.40395e-05
1.69706e-05
0.00033336
0.00145314
0.0011503
0.000969256
0.000945249
1.73301e-07
0.00074545
0.00207393
1.54676e-05
0.000502401
0.000328091
0.0224281
0.00131647
0.000276591
0.0193733
0.00106115
0.000532376
0.000132027
0.000215561
5.04215e-06
0.0214598
1.84963e-07
0.00105576
0.0185237
0.0147298
0.0012623
0.000342802
4.03159e-09
0.000474807
0.000819973
3.05053e-05
0.000624968
5.37639e-05
0.000499361
0.000794687
0.000677336
0.000370563
9.85597e-05
8.09099e-05
5.38712e-06
0.147139
4.31428e-09
0.0229612
3.48496e-06
0.0174833
0.0180012
3.96163e-07
0.0520033
0.0473381
0.0708272
0.053794
0.0705811
0.00207832
0.000433492
0.000161329
0.00214498
0.00034357
0.000123458
0.000534987
0.0170879
0.00906547
0.0014525
0.0170693
0.0186599
0.0147753
0.00674538
2.81472e-06
0.0188941
0.00156906
0.000526242
0.173552
0.000261277
0.000266573
1.01079e-08
0.0238392
0.0642949
0.0678234
0.000161665
0.000242913
2.12372e-06
0.000107229
0.246495
0.00364781
8.35097e-05
0.00114344
0.000714713
3.23743e-08
4.90367e-05
0.000866362
1.61879e-06
0.00214514
0.235496
0.0390133
0.000536582
0.0207241
0.000696961
0.000473242
2.01446e-05
0.000337773
0.0349753
2.68702e-10
0.000390859
7.92126e-10
0.206223
4.7404e-08
3.37441e-08
2.22613e-08
0.000331727
0.000375082
0.00041667
0.0204274
3.53817e-06
0.017445
0.000594941
3.97886e-06
0.000507994
7.52496e-06
6.82145e-06
0.000489017
0
0.00061857
0.000376676
5.8565e-06
8.90942e-06
0.000451857
0.000664802
4.30446e-06
3.5065e-06
3.02942e-06
9.082e-07
0.0967494
4.86736e-07
0.0163525
0.240073
0.233567
1.64561e-07
2.74256e-07
0.125656
1.68418e-05
0.000171833
0.0108966
2.07306e-07
2.99377e-05
4.5919e-05
6.47182e-08
0.00134316
0.00752912
0.00845841
3.46698e-05
1.86008e-07
0.154621
3.49858e-05
0.134185
0.223493
0.0948092
0.0128108
0.102397
0.0870705
0.000341656
0.000222344
4.12419e-05
0.000435783
0.000337403
1.99759e-09
3.78806e-09
2.08157e-09
0.00398397
1.86648e-07
0.00139141
1.24779e-07
0.000156614
0.219613
0.208772
0.194354
0.000172155
0.000172235
0.000127932
0.104695
3.92866e-09
0.158588
0.00604837
0.00122861
0.00740647
3.15207e-05
0
0.00560409
0.00449302
0.000129982
0.0707226
0.0049394
0.00297867
0.0987667
0.0138253
1.30225e-05
0.00103836
0.00145176
8.50637e-08
0.044052
0.0500097
0.0512385
0.0299454
0.0286164
0.0251865
5.82593e-05
5.06949e-05
1.4636e-05
9.67364e-06
7.29438e-06
0.0199144
0.0229178
2.01415e-05
1.6654e-05
0.00319882
0.0162147
2.0653e-05
1.12295e-05
0.0491566
0.0430683
0.0402055
6.64633e-05
5.51752e-05
0.0206724
3.7604e-05
0.062928
0.069209
0.0625361
0.000205465
0.000172275
0.000119783
0.00739314
0.00485827
0.23
0.000500127
0.000597337
0.000356352
8.43537e-07
0.00049094
0.000277885
0.000291682
0.002766
0.0688235
0.116158
0.0590129
0.164719
0.00113671
0.000512319
0.000460772
0.000333792
0.000276698
0.000592739
0.000358713
0.000409002
0.000176901
0.000145029
4.44876e-07
1.35961e-06
0.00152039
2.62902e-05
5.20743e-05
0.000368232
5.94489e-05
2.45029e-10
0.000251155
0.00692662
0.0627877
0.053891
0.0549937
0.179171
0.170542
0.163548
0.00548342
8.96532e-06
0.00623002
0.00469733
0.105717
0.0957829
0.0669581
0.0910336
1.25883e-07
2.11674e-08
4.68191e-07
0.136179
0.1255
1.94624e-06
0.00713147
0.00540562
0.000196575
0.0407514
0.0103629
9.0271e-08
0.0609271
0.00809333
4.23088e-05
2.79029e-05
3.59438e-05
6.36139e-06
0.00010547
2.51049e-05
0.0178293
0.130338
5.10343e-05
0.0290139
0.0986775
0.0324623
0.0184727
0.108285
2.74387e-07
0.065074
0.000303593
0.0553508
0.054224
0.0268154
0.138323
0.00773657
0.00472272
1.4877e-05
4.65667e-06
5.68993e-08
0.000154663
7.95866e-05
3.52732e-08
7.32265e-05
0.0385081
6.6852e-08
0.00381852
1.26267e-07
0.00297783
0.0191837
0.0170519
0.0194947
0.133802
0.127602
1.58093e-08
0.000167299
0.000210993
0.00358372
0.0919633
0.0778725
2.80894e-09
0.00231285
8.59082e-06
9.83835e-05
0.00191213
0.00742768
0.00199936
0
0.169639
0.0104327
0.00844579
0.180516
0.00879973
0.000126888
0.0374704
0.176844
0.101798
0.00663061
0.00182677
0.00503708
1.11813e-10
0.000563335
4.50862e-07
4.44485e-07
0.00653193
0.0120999
0.00081251
0.00257551
0.013095
0.00185379
1.70991e-09
3.25436e-09
1.38056e-09
0.0207786
0.00116199
2.27972e-08
0.0200279
8.87778e-10
0.0267093
0.00143604
0.00110749
3.4714e-10
0.00384743
0.0108121
0.00866089
0.00726786
7.91196e-10
3.32871e-10
0.192537
0.172801
0.194647
1.38537e-05
0.0331222
6.76677e-08
2.25659e-08
0.049608
0.0407134
0.117499
0.0397319
1.71149e-05
3.64174e-05
4.26209e-08
0.00834721
5.55668e-06
0.00883382
0.00582338
0.0816119
0.0181821
0.00968296
0.0842676
9.57053e-05
6.45422e-05
1.32587e-08
0.00440281
0.00069182
0.00540904
0.00573058
0.0111279
8.56252e-08
0.000277466
0.0070699
0.00343283
0.000970248
0.000581299
0.00993726
0.000396342
0.000429747
1.148e-06
1.18782e-06
0.0123355
0.0121333
0.010062
0.0169549
0.0332616
0.0196828
0.0210814
0.0121718
0.0219748
0.00998648
0.000434523
0.0162687
0.00313693
0.0145785
6.47435e-06
1.45573e-08
0.000388381
1.92413e-05
0.000414563
0.00443268
0.0078933
0.0016162
0.0380548
0.0613127
0.0538231
1.62441e-06
7.9322e-07
0.00146299
4.63965e-06
3.51633e-06
0
3.05305e-08
9.44482e-06
7.25247e-09
4.87478e-08
0.115314
0.0099142
1.11722e-10
3.10786e-10
6.76206e-05
0.000447833
0
0.0325094
0.00014056
4.20917e-07
1.47979e-09
5.70297e-07
2.4676e-07
0.00271941
5.25105e-07
3.72793e-10
0.015261
0.000162396
5.38074e-05
0.00799128
0.000257076
0.000247715
0.00203972
3.16698e-05
0.0406722
1.27701e-08
0.114801
0.0023481
0.0196579
0.0143304
0.00284868
1.16636e-06
0.0392855
3.57514e-09
0.00452965
0.0155125
0.000342479
1.37283e-06
0.00498839
7.42999e-07
0.00306332
0.0429633
2.00419e-05
6.98799e-07
2.0093e-09
9.76958e-05
0.00632331
0.0438464
0.163643
3.49867e-09
0.0217865
0.0904412
0.139896
0.0982826
0.0135932
5.46046e-05
0.00236494
0.0499616
0.0309154
0.119531
7.19117e-06
3.24697e-06
5.17502e-09
3.66179e-06
4.04414e-07
2.37474e-06
3.44239e-05
9.28535e-07
0.145739
0.109155
0.0280908
1.72385e-08
0.00262743
0.00116705
0.0553899
0.0168713
1.03009e-05
1.32179e-06
9.3812e-05
0.0482453
0
1.73375e-08
1.06541e-08
0.0117166
5.54483e-08
0.0981385
3.63641e-08
3.55509e-05
9.59055e-06
0.00620977
0.0124784
0.00135834
2.97867e-10
0.0219236
8.56289e-09
7.86802e-07
0.000801945
0.00663673
5.88103e-05
0.00973349
0.0498546
0.142839
0.00322124
1.15611e-08
0.00142061
0.0066795
0.000980266
0.000817915
0.00751249
8.39469e-05
7.74993e-09
4.37869e-07
0
0.000170366
1.64345e-08
0
0.055884
9.60042e-05
0.00226669
2.47734e-08
1.57048e-10
1.58299e-08
0
0.00313986
0.185239
0.000108183
1.10846e-08
0.000881853
4.30217e-06
9.4893e-09
0.144394
0.001914
0.00076655
0
0.000211421
0.000942357
0.20422
0.001288
0.0106811
1.2513e-05
0.00074347
0.00559704
0.000267986
0.00380802
0.00249752
0.00173541
0.00674788
4.62821e-05
0.22866
0.000820909
3.34858e-09
0.0429696
1.92012e-07
0.00485472
0.000739571
4.40703e-09
0.0128057
2.04934e-09
0.237738
0.0205046
0.00194671
9.24231e-06
0.108129
2.66537e-05
0.244248
0.000177157
0.00017714
0.0041169
5.7683e-06
0.00754944
5.39367e-06
0.0932583
5.11415e-05
1.23251e-07
0.218536
0.164618
0.00456555
0.00908099
0.000921449
0.0105296
1.3391e-05
0.0523813
2.60992e-05
6.36231e-06
5.89476e-08
3.15549e-05
0.000445663
1.55393e-06
1.02211e-07
5.62097e-06
0.000131998
0.00240337
0.0305326
0.0297455
0.00507976
7.73786e-05
0.000230249
0.00383218
2.65616e-06
0.00673947
0.000117905
0.000163345
0.0906735
0.0333521
0.0066726
0.0678283
0.159845
0.000458597
0.0436761
0.100231
0.00704193
1.46352e-06
0.152637
0.0352717
0.000246444
0.0335101
5.58844e-09
0.117869
0.000226377
1.55864e-07
0.0355613
7.44597e-05
1.01553e-06
2.13589e-07
2.23146e-08
0.0116823
0.000200828
0.00014488
0.000640605
0.0247572
0.0277099
0.0290789
1.74633e-10
0.00035341
0.0328758
0.061631
0.00320007
0.0372201
2.44766e-08
0.0469757
1.54293e-07
9.24852e-09
0.0380523
0
2.32424e-06
0.0436962
0.000291651
0.052875
2.1175e-10
0.0454653
4.32776e-08
2.94327e-10
0.0652756
7.97518e-09
4.74673e-09
0.00899186
0.00531409
0.169272
1.99816e-05
8.53497e-07
0.000235538
0.00150266
0.0035953
0.000982188
2.0207e-07
0.000153627
0.00323435
0.00517709
5.88016e-05
0.000809994
0.116658
0.00178985
0.00158473
4.0997e-05
1.022e-05
0.0066039
1.97333e-08
0.13417
0.00410405
0.000437229
9.42732e-08
0.0590238
0.000670817
0.0174087
0.101314
0.130292
6.54577e-05
0.00603869
9.57159e-05
0.0840021
0.11263
5.62334e-05
0.0017666
0.00672125
1.17696e-07
0.000715434
0.000990372
1.42302e-09
0.0223113
1.64231e-10
8.19971e-08
0.0292475
0
0.000211976
2.15387e-08
0.00950289
0.113534
6.01744e-07
0.000399856
0.000742875
0.0104595
3.83933e-05
1.41242e-05
0.00507578
1.60769e-05
6.44056e-07
3.39938e-08
0.003873
0.0206973
0.251854
3.42828e-09
1.79832e-09
0.0892498
9.85341e-08
4.59205e-10
0.0316794
2.4698e-06
0.000497287
4.5135e-06
1.68477e-07
0.220823
0.111255
9.35702e-08
7.90689e-09
0.131937
4.39011e-10
7.21075e-10
5.09743e-09
3.02768e-09
3.81844e-05
8.46313e-08
7.03364e-10
0.00285259
0.0421751
0.0442446
0.00598531
8.88146e-08
2.91191e-09
0.0550199
0.0540843
0.0567675
0.0157854
0.0115622
0.059711
5.90863e-07
5.58549e-05
0.000460742
4.76035e-05
4.61603e-06
1.96002e-06
2.00378e-05
0.000603881
0.0670444
0.0362493
0.041079
1.62174e-06
0.000322667
2.86259e-06
4.7805e-05
3.7368e-07
0.020547
0.000289882
6.46607e-08
0.0048419
0.000882951
0.00816529
0.0332948
2.40328e-07
0.00030762
0.00521612
0
0.00306471
6.72584e-07
0.000251371
1.23221e-09
0.00173871
0.000625926
0.00335411
0.00012459
0.000292437
0.00231306
1.73826e-10
0.0484089
0.0828144
1.94323e-08
0.250552
1.484e-09
4.40604e-05
0.0425586
0.017008
0.0356485
9.36291e-05
7.47758e-05
0.0404845
0.00125434
0.0238857
0.00647905
1.40338e-10
0
0.00117977
0.154234
0.0226503
0.0190809
0.178624
0.00128726
0.0148581
1.27878e-08
3.20653e-06
2.04838e-05
0.00956136
1.35148e-10
0.000377015
0.0139773
1.75782e-07
0.00127767
0.0281519
0.000373027
3.65458e-05
3.40858e-07
5.77196e-10
0.00996373
0.028194
4.70523e-05
0.0545846
1.98823e-09
7.37772e-06
0.000213284
0.000586693
1.04418e-08
0.00329489
0.00609117
0.000214782
0.0434719
1.50092e-05
2.85521e-07
2.98862e-09
0.00553349
1.25421e-07
0.000357913
0.000530662
0.000532401
7.28082e-05
0.068716
1.31178e-08
3.44334e-07
9.54586e-05
0
0.000202211
0.000522842
0.000475364
0.000450098
3.0164e-06
4.95356e-05
0.155848
0.0325377
0.00104519
2.47096e-09
0.000258749
9.00195e-05
0.0210965
3.6935e-05
4.84745e-06
7.09503e-05
0.0469107
0.129526
1.69722e-08
0.065765
0.0478421
1.07223e-09
8.78965e-06
0.00150964
0.00202386
0
0.000312001
0.0294689
0.000391471
6.06105e-05
2.12185e-08
8.77575e-05
3.78836e-07
0.00101691
0.0512273
5.49019e-05
5.22843e-05
0.023762
3.06731e-05
1.50004e-07
0.106495
0.0255336
0.0244448
0.128523
2.68059e-05
1.95715e-06
0.204014
0.185338
0.000835456
4.93863e-08
1.18057e-07
0.000421188
8.26897e-05
0.0425617
0.000154078
2.08913e-07
0.0111101
8.13263e-08
0.00151505
0.0134711
7.98065e-09
0.00886705
0.0018811
0.141174
0.143202
0.00269689
0.212589
1.80356e-10
3.36088e-05
5.11481e-06
3.54733e-05
0.0334424
3.6042e-09
0.142332
0.00244727
0.00125762
1.04118e-06
4.19344e-07
0.00221659
0.00109987
0.171792
5.34961e-09
2.24641e-08
1.16384e-07
0.016518
0
3.8944e-07
0.0398272
0.000817659
0.0321779
0.0344323
0.000244769
0.000133258
2.38804e-08
0.000746361
0.0130646
9.40126e-06
0.000690002
3.97966e-08
0.0931201
6.58853e-06
0.0455591
0.022303
0.0446296
0.105232
0.000234635
0.00028505
5.55948e-05
0.000141427
0.205458
2.77499e-05
0.0144805
9.49832e-08
1.12515e-06
0.0885721
7.97265e-09
2.17339e-08
1.8781e-07
0.000328754
0.0363532
0.0132255
0.000238712
0.00717467
0.05162
0.000416577
0.0304588
0.0310251
0.00104567
8.42054e-08
0.00308267
0.0566436
0.0172425
0.000243346
0
7.00702e-08
1.30301e-05
0.00011353
0.0290151
3.01578e-07
5.82469e-05
1.11706e-06
0.00458824
0.00627135
2.06281e-05
5.84442e-09
0.0557225
6.43701e-05
2.13969e-09
0
0.00618182
0.0555619
5.32426e-05
7.17869e-08
8.31274e-05
6.90468e-05
0.000252613
7.344e-05
0.000569579
0.0727794
0.0284216
9.15387e-06
0.0118974
7.66314e-08
0.000863427
0.00412797
0
0.0015355
0
6.70037e-09
0.0772983
0.000876546
0.0205938
8.23481e-10
1.60342e-06
0.00251852
0.0138977
0.0109668
9.93767e-06
2.66952e-05
2.84948e-05
0.0657541
0.0346552
1.23608e-08
0.035767
0.0398765
2.37421e-05
0.00211007
7.51263e-05
3.09026e-05
0.00282027
2.94985e-07
0.0586397
4.18759e-06
0.000149406
0.000273519
6.83294e-06
4.72266e-06
1.25066e-05
0.000326113
1.64072e-07
1.04494e-05
0.0169879
0.062659
5.18488e-08
3.49041e-05
0.0310109
0.187314
6.46303e-06
0.00190419
0.014455
0.00014779
0.246053
0.0183793
0.000757806
0.20504
0.017565
0.202277
0.00900012
0.000255127
2.22981e-05
0.00158814
0.00336092
0.0543391
0.0514074
0.00509264
3.09244e-05
4.0465e-08
0.000827929
0.160282
0.0396622
2.51373e-06
1.14934e-05
0.000133952
7.197e-07
2.77805e-06
0.0548898
0.0107335
1.07664e-09
0.0320985
0.00201668
1.59155e-05
0.00818391
0.000353214
0.000242641
7.29753e-06
1.08252e-06
0.0110066
0.00628331
1.61498e-05
0.00805976
0.00839215
0.0149941
0.000728338
0.00810014
0.000190382
0.000233068
0
0.00101821
0.000739944
4.75072e-07
1.07048e-07
0.0141919
8.25517e-05
3.30709e-07
4.2699e-08
0.00080983
0.0019568
4.90653e-05
0.188602
0.0317263
7.954e-10
0.227704
0.00210413
0.00111124
2.19062e-07
4.78654e-07
0.000192052
0.0041723
0.0405797
0.034948
0.00536831
5.32975e-06
0.0155215
0.207393
1.02575e-07
8.14597e-08
0.00147744
0.00131588
0.000143111
8.37674e-08
0.0366879
0.000760101
0.000112567
4.20842e-08
1.31812e-05
1.41283e-10
7.43854e-06
2.48047e-08
1.09246e-06
0.00610382
0.0147346
0.035161
0.110639
0.145038
0.0181821
4.8942e-06
2.49894e-07
0.131616
4.32497e-06
1.73887e-06
5.74312e-09
0.0204505
7.38467e-07
0.0023405
0.000665285
0
0
0.0278571
0.000226915
0
0.000742181
0.000621038
9.89787e-05
0.0361049
0.00782671
1.27718e-10
0.0923188
0.0222864
0.0309553
1.93223e-06
0.00745718
0.000916908
0.00139552
2.06836e-10
1.9484e-10
0.0277078
0.00361894
0.00255831
0.000720096
0.0038859
4.44091e-10
7.81688e-09
2.13406e-09
0.0121105
5.10303e-09
0.00283135
0.0153102
0.215587
1.95583e-09
9.72827e-10
0.000495767
5.21147e-08
0.000973337
0.000135913
0.000746233
1.29805e-05
0.170162
0.000558672
0.165533
0.000589411
0.161922
1.00882e-06
0.000261709
0.0009701
0.183519
0.00022869
0.00220773
0.00648194
8.72504e-05
0.00145247
0.00739845
0.000146077
0.00207699
5.61924e-08
0.00734788
8.7217e-06
0.000168348
1.51593e-05
2.14651e-06
0.000557809
1.08593e-08
1.16381e-07
0.109358
0.109377
3.47396e-05
3.34324e-08
0.000917536
0.00424605
0.0447809
0.104418
0.21748
9.44234e-09
1.98869e-08
1.4664e-07
7.05751e-08
0.000630278
1.55092e-08
0.00503153
0.000143509
1.44543e-05
2.40784e-05
0.00030348
8.5798e-05
0.000122595
0.000115311
0.000176384