# vtk DataFile Version 2.0
Unstructured Grid by M++
ASCII
DATASET UNSTRUCTURED_GRID
POINTS 4072 float
  0.609375   0.843750 0
  0.562500   0.843750 0
  0.531250   0.843750 0
  0.875000   0.828125 0
  0.984375   0.828125 0
  0.953125   0.828125 0
  0.937500   0.828125 0
  0.843750   0.828125 0
  0.812500   0.828125 0
  0.781250   0.828125 0
  0.765625   0.828125 0
  0.734375   0.828125 0
  0.703125   0.828125 0
  0.671875   0.828125 0
  0.640625   0.828125 0
  0.609375   0.828125 0
  0.593750   0.828125 0
  0.562500   0.828125 0
  0.546875   0.828125 0
  0.531250   0.828125 0
  0.515625   0.828125 0
  0.968750   0.812500 0
  0.937500   0.812500 0
  0.921875   0.812500 0
  0.890625   0.812500 0
  0.859375   0.812500 0
  0.828125   0.812500 0
  0.796875   0.812500 0
  0.765625   0.812500 0
  0.750000   0.812500 0
  0.718750   0.812500 0
  0.687500   0.812500 0
  0.656250   0.812500 0
  0.625000   0.812500 0
  0.593750   0.812500 0
  0.578125   0.812500 0
  0.546875   0.812500 0
  0.531250   0.812500 0
  0.515625   0.812500 0
  0.984375   0.796875 0
  0.562500   0.015625 0
  0.953125   0.796875 0
  0.921875   0.796875 0
  0.906250   0.796875 0
  0.875000   0.796875 0
  0.843750   0.796875 0
  0.812500   0.796875 0
  0.781250   0.796875 0
  0.750000   0.796875 0
  0.734375   0.796875 0
  0.703125   0.796875 0
  0.671875   0.796875 0
  0.640625   0.796875 0
  0.609375   0.796875 0
  0.578125   0.796875 0
  0.562500   0.796875 0
  0.531250   0.796875 0
  0.515625   0.796875 0
  0.968750   0.781250 0
  0.546875   0.000000 0
  0.937500   0.781250 0
  0.906250   0.781250 0
  0.890625   0.781250 0
  0.859375   0.781250 0
  0.828125   0.781250 0
  0.796875   0.781250 0
  0.765625   0.781250 0
  0.734375   0.781250 0
  0.718750   0.781250 0
  0.687500   0.781250 0
  0.656250   0.781250 0
  0.625000   0.781250 0
  0.593750   0.781250 0
  0.562500   0.781250 0
  0.546875   0.781250 0
  0.515625   0.781250 0
  0.984375   0.765625 0
  0.953125   0.765625 0
  0.921875   0.765625 0
  0.890625   0.765625 0
  0.875000   0.765625 0
  0.843750   0.765625 0
  0.812500   0.765625 0
  0.781250   0.765625 0
  0.750000   0.765625 0
  0.718750   0.765625 0
  0.703125   0.765625 0
  0.671875   0.765625 0
  0.640625   0.765625 0
  0.609375   0.765625 0
  0.578125   0.765625 0
  0.593750   0.750000 0
  0.562500   0.765625 0
  0.546875   0.765625 0
  0.531250   0.765625 0
  0.562500   0.750000 0
  0.968750   0.750000 0
  0.937500   0.750000 0
  0.906250   0.750000 0
  0.875000   0.750000 0
  0.859375   0.750000 0
  0.828125   0.750000 0
  0.796875   0.750000 0
  0.765625   0.750000 0
  0.734375   0.750000 0
  0.703125   0.750000 0
  0.687500   0.750000 0
  0.671875   0.750000 0
  0.656250   0.750000 0
  0.625000   0.750000 0
  0.546875   0.750000 0
  0.531250   0.750000 0
  0.515625   0.750000 0
  0.562500   0.734375 0
  0.984375   0.734375 0
  0.953125   0.734375 0
  0.921875   0.734375 0
  0.890625   0.734375 0
  0.859375   0.734375 0
  0.843750   0.734375 0
  0.812500   0.734375 0
  0.781250   0.734375 0
  0.750000   0.734375 0
  0.718750   0.734375 0
  0.687500   0.734375 0
  0.671875   0.734375 0
  0.656250   0.734375 0
  0.640625   0.734375 0
  0.546875   0.734375 0
  0.531250   0.734375 0
  0.515625   0.734375 0
  0.562500   0.718750 0
  0.968750   0.718750 0
  0.937500   0.718750 0
  0.906250   0.718750 0
  0.875000   0.718750 0
  0.843750   0.718750 0
  0.796875   0.718750 0
  0.765625   0.718750 0
  0.734375   0.718750 0
  0.703125   0.718750 0
  0.687500   0.718750 0
  0.671875   0.718750 0
  0.656250   0.718750 0
  0.625000   0.718750 0
  0.546875   0.718750 0
  0.531250   0.718750 0
  0.515625   0.718750 0
  0.562500   0.703125 0
  0.953125   0.703125 0
  0.921875   0.703125 0
  0.890625   0.703125 0
  0.859375   0.703125 0
  0.828125   0.703125 0
  0.781250   0.703125 0
  0.750000   0.703125 0
  0.718750   0.703125 0
  0.687500   0.703125 0
  0.656250   0.703125 0
  0.546875   0.703125 0
  0.531250   0.703125 0
  0.515625   0.703125 0
  0.984375   0.687500 0
  0.937500   0.687500 0
  0.921875   0.687500 0
  0.906250   0.687500 0
  0.875000   0.687500 0
  0.843750   0.687500 0
  0.812500   0.687500 0
  0.765625   0.687500 0
  0.734375   0.687500 0
  0.703125   0.687500 0
  0.671875   0.687500 0
  0.640625   0.687500 0
  0.593750   0.687500 0
  0.562500   0.687500 0
  0.546875   0.687500 0
  0.531250   0.687500 0
  0.515625   0.687500 0
  0.968750   0.671875 0
  0.937500   0.671875 0
  0.921875   0.671875 0
  0.906250   0.671875 0
  0.890625   0.671875 0
  0.859375   0.671875 0
  0.828125   0.671875 0
  0.796875   0.671875 0
  0.765625   0.671875 0
  0.750000   0.671875 0
  0.718750   0.671875 0
  0.687500   0.671875 0
  0.656250   0.671875 0
  0.625000   0.671875 0
  0.593750   0.671875 0
  0.578125   0.671875 0
  0.546875   0.671875 0
  0.531250   0.671875 0
  0.515625   0.671875 0
  0.984375   0.656250 0
  0.953125   0.656250 0
  0.937500   0.656250 0
  0.921875   0.656250 0
  0.906250   0.656250 0
  0.875000   0.656250 0
  0.843750   0.656250 0
  0.812500   0.656250 0
  0.781250   0.656250 0
  0.750000   0.656250 0
  0.734375   0.656250 0
  0.703125   0.656250 0
  0.671875   0.656250 0
  0.640625   0.656250 0
  0.609375   0.656250 0
  0.578125   0.656250 0
  0.562500   0.656250 0
  0.531250   0.656250 0
  0.515625   0.656250 0
  0.968750   0.640625 0
  0.937500   0.640625 0
  0.906250   0.640625 0
  0.890625   0.640625 0
  0.859375   0.640625 0
  0.828125   0.640625 0
  0.796875   0.640625 0
  0.765625   0.640625 0
  0.734375   0.640625 0
  0.718750   0.640625 0
  0.687500   0.640625 0
  0.656250   0.640625 0
  0.625000   0.640625 0
  0.593750   0.640625 0
  0.562500   0.640625 0
  0.546875   0.640625 0
  0.515625   0.640625 0
  0.984375   0.625000 0
  0.953125   0.625000 0
  0.921875   0.625000 0
  0.890625   0.625000 0
  0.875000   0.625000 0
  0.843750   0.625000 0
  0.812500   0.625000 0
  0.781250   0.625000 0
  0.750000   0.625000 0
  0.734375   0.625000 0
  0.718750   0.625000 0
  0.703125   0.625000 0
  0.671875   0.625000 0
  0.640625   0.625000 0
  0.609375   0.625000 0
  0.578125   0.625000 0
  0.562500   0.625000 0
  0.546875   0.625000 0
  0.531250   0.625000 0
  0.968750   0.609375 0
  0.937500   0.609375 0
  0.906250   0.609375 0
  0.875000   0.609375 0
  0.859375   0.609375 0
  0.828125   0.609375 0
  0.796875   0.609375 0
  0.765625   0.609375 0
  0.750000   0.609375 0
  0.734375   0.609375 0
  0.718750   0.609375 0
  0.703125   0.609375 0
  0.687500   0.609375 0
  0.656250   0.609375 0
  0.625000   0.609375 0
  0.593750   0.609375 0
  0.562500   0.609375 0
  0.546875   0.609375 0
  0.531250   0.609375 0
  0.515625   0.609375 0
  0.984375   0.593750 0
  0.953125   0.593750 0
  0.921875   0.593750 0
  0.890625   0.593750 0
  0.859375   0.593750 0
  0.843750   0.593750 0
  0.812500   0.593750 0
  0.781250   0.593750 0
  0.750000   0.593750 0
  0.734375   0.593750 0
  0.718750   0.593750 0
  0.687500   0.593750 0
  0.671875   0.593750 0
  0.640625   0.593750 0
  0.609375   0.593750 0
  0.578125   0.593750 0
  0.562500   0.593750 0
  0.546875   0.593750 0
  0.531250   0.593750 0
  0.515625   0.593750 0
  0.968750   0.578125 0
  0.937500   0.578125 0
  0.906250   0.578125 0
  0.875000   0.578125 0
  0.890625   0.562500 0
  0.843750   0.578125 0
  0.828125   0.578125 0
  0.796875   0.578125 0
  0.765625   0.578125 0
  0.734375   0.578125 0
  0.703125   0.578125 0
  0.671875   0.578125 0
  0.656250   0.578125 0
  0.656250   0.562500 0
  0.625000   0.578125 0
  0.640625   0.562500 0
  0.593750   0.578125 0
  0.562500   0.578125 0
  0.546875   0.578125 0
  0.531250   0.578125 0
  0.515625   0.578125 0
  0.859375   0.562500 0
  0.828125   0.562500 0
  0.781250   0.562500 0
  0.750000   0.562500 0
  0.718750   0.562500 0
  0.687500   0.562500 0
  0.609375   0.562500 0
  0.578125   0.562500 0
  0.562500   0.562500 0
  0.546875   0.562500 0
  0.531250   0.562500 0
  0.515625   0.562500 0
  1.000000   0.812500 0
  0.578125   0.031250 0
  0.875000   0.546875 0
  0.625000   0.546875 0
  0.218750   0.000000 0
  0.640625   0.781250 0
  0.828125   0.093750 0
  0.031250   0.531250 0
  0.296875   0.328125 0
  0.296875   0.312500 0
  0.281250   0.312500 0
  0.765625   0.312500 0
  0.031250   0.859375 0
  0.093750   0.265625 0
  0.109375   0.250000 0
  0.187500   0.671875 0
  0.421875   0.640625 0
  0.031250   0.062500 0
  0.140625   0.125000 0
  0.562500   0.906250 0
  0.125000   0.437500 0
  0.203125   0.937500 0
  0.125000   0.421875 0
  0.140625   0.406250 0
  0.093750   0.437500 0
  0.109375   0.421875 0
  0.093750   0.421875 0
  0.109375   0.406250 0
  0.328125   0.125000 0
  0.750000   0.906250 0
  0.328125   0.109375 0
  0.750000   0.890625 0
  0.312500   0.125000 0
  0.734375   0.906250 0
  0.281250   0.343750 0
  0.265625   0.359375 0
  0.500000   0.796875 0
  0.078125   0.015625 0
  0.062500   0.015625 0
  0.484375   0.796875 0
  0.484375   0.781250 0
  0.062500   0.000000 0
  0.015625   0.250000 0
  0.062500   0.046875 0
  0.484375   0.828125 0
  0.484375   0.812500 0
  0.062500   0.031250 0
  0.281250   0.671875 0
  0.062500   0.234375 0
  0.328125   0.765625 0
  0.312500   0.750000 0
  0.015625   0.671875 0
  0.781250   0.187500 0
  0.015625   0.265625 0
  0.453125   0.250000 0
  0.453125   0.234375 0
  0.031250   0.265625 0
  0.046875   0.250000 0
  0.093750   0.015625 0
  0.265625   0.656250 0
  0.734375   0.281250 0
  0.156250   0.015625 0
  0.062500   0.265625 0
  0.046875   0.281250 0
  0.031250   0.281250 0
  0.343750   0.781250 0
  0.328125   0.781250 0
  0.265625   0.687500 0
  0.265625   0.703125 0
  0.156250   0.109375 0
  0.578125   0.890625 0
  0.484375   0.984375 0
  0.062500   0.203125 0
  0.328125   0.718750 0
  0.343750   0.734375 0
  0.343750   0.750000 0
  0.453125   0.500000 0
  0.437500   0.500000 0
  0.234375   0.093750 0
  0.171875   0.375000 0
  0.437500   0.531250 0
  0.468750   0.546875 0
  0.453125   0.546875 0
  0.187500   0.015625 0
  0.187500   0.000000 0
  0.609375   0.781250 0
[...]
CELL_DATA 7648
SCALARS scalar_value float 1
LOOKUP_TABLE default
0.00724801
0.00779551
0.00903075
0.00703549
0.0491925
0.0482192
0.0522543
0.0453659
0.00743116
0.00865185
0.00923294
0.0235529
0.0225425
0.0194414
0.00181198
0.00159452
0.00168791
0.00129728
7.28355e-06
7.00229e-06
8.37513e-06
6.02425e-06
1.98301e-06
6.58078e-07
7.21923e-07
1.04871e-06
5.7017e-07
0.0165145
0.0173426
7.72759e-08
9.64718e-08
1.30244e-07
7.51461e-08
2.15259e-07
2.67626e-07
3.50721e-07
2.20599e-07
7.95743e-08
1.05163e-07
1.40152e-07
3.40268e-08
7.54582e-08
0.00603366
0.00759745
0.00740309
0.049142
0.0538986
0.0610113
5.39524e-07
0.0710044
0.11114
5.62856e-06
7.50274e-07
9.55615e-07
0.00211934
9.48755e-07
0.00255501
0.00164501
2.32701e-07
3.40771e-07
4.9934e-07
2.71801e-06
1.49163e-06
0.00272795
0.0023736
0
0
5.78338e-07
0.000396061
2.61432e-10
0.000229916
0
0.00101493
0.00173675
0.00340242
0
0.0127829
0
0.00299944
0.00313661
0.00405168
0
2.37788e-10
0
0.0702475
2.78275e-07
0.000149198
0.000135381
0.00323121
0
1.97921e-08
0
1.0502e-05
1.41196e-05
0
4.17309e-07
0.00730864
7.34769e-07
0.00981835
0.0114136
0.00231163
1.89489e-06
0.00251263
0.00427502
4.25297e-06
0.000136662
0.00126433
0.0649199
0.0562212
1.21308e-08
3.50617e-07
0.000396657
0.000389382
0
1.721e-05
0
2.18229e-05
1.2677e-05
4.10632e-07
0.0420332
0.0413219
0
0
2.36995e-05
0
0
0
0.0444216
0.0514367
0.0376936
1.20457e-10
0.0197503
0
0.0184196
0.000458194
0.0157785
0.0188086
1.22448e-06
2.10022e-07
0.0429973
0.00395133
0.0463794
0.0497949
9.05774e-08
0.0481945
0.0555347
0.0378832
5.92067e-06
0.103173
0.0026244
0.00243625
1.24291e-06
1.61437e-06
2.06712e-06
0.00379874
0.00330446
0.045162
1.35781e-07
0.0880132
9.71619e-07
0
8.19075e-06
9.51926e-06
0.000802668
0.0571714
0.0629503
1.01421e-07
0.0502346
2.19517e-06
0.0825018
0
0.0844002
0.053702
0.00268129
0.000346745
1.5371e-05
0.0682008
0.0352886
0.000348029
0.0404559
0.0452042
0.000458196
0.0744167
0.0152111
0
1.04137e-05
0.134355
0
0
0.0190668
0
0.0203718
0.00797715
0
5.57367e-08
0.00866444
0.0104234
0.00828251
0
0
0
0.056939
1.38818e-05
0.135876
0.128315
1.14731e-05
1.36249e-06
0.0165961
0.0167402
0.0147603
1.24373e-07
1.95711e-07
2.90522e-07
1.7574e-07
0.069983
2.42537e-05
0
0.0899931
0
0.00285569
0.00609028
0.0696534
0.0772324
4.99271e-08
0.0653624
1.04973e-08
0.000958725
0.00218887
0.0517019
0.0444724
0.10144
0.0955888
0.0303226
0.00018366
0.125718
0.125222
0.129451
0.122343
0.02141
0
0.0185897
0.00298861
0.000193771
0.00253095
0.00272352
0.0624239
0.000595884
0.0560883
0.0625439
6.79324e-09
0.0516794
0.00199455
1.30927e-06
1.73954e-06
1.65609e-06
0.0131515
8.45804e-05
0.00456059
0.00485189
5.61309e-06
6.82428e-06
6.6386e-06
0.0245456
1.58729e-07
4.49558e-08
0.058787
1.03166e-07
0.0658459
7.19662e-08
0.0463646
0.128586
5.22923e-06
0
0.0377015
0.00367369
2.39199e-08
0.104003
0.00618748
0.000123863
0.000152724
2.6906e-08
0.0117425
0.0044701
0.00504477
0.00027954
0.015516
0.00497852
2.9423e-08
8.63852e-09
0.0181012
1.48129e-08
0.0146475
0.00105137
1.03082e-09
0.000140526
0.000141822
1.39977e-09
0.000174436
0
0.00254787
8.64736e-06
0.000409858
0.0132338
0.0030896
3.94824e-06
3.22191e-06
2.85785e-06
1.81796e-05
0.00750255
5.75418e-05
4.34721e-05
0.0215189
0.019827
2.55317e-10
0.00525502
0.00203801
2.13308e-05
0.00496582
1.69943e-05
0.00135278
1.26485e-05
2.71407e-06
0.00908946
0.0130653
0.0209356
7.64769e-05
1.66386e-05
0.0123998
0.0163204
3.61555e-05
0.0120255
1.18219e-06
0.0552099
0.00604845
0.0178979
0.00563159
0.0165605
0.0525952
0.0463052
4.87357e-06
0.00732264
0.0672356
0.0589646
0
0.03132
0.00307534
0.0041363
0.00844004
5.43074e-09
0
0
0
7.9999e-06
0.0180329
3.49812e-09
0.0170331
1.30592e-08
0.0387069
0.0348228
0.0325024
0.000107609
8.87719e-05
9.62952e-05
0.000775858
0.015473
0.0056573
0.0138938
1.48732e-10
2.87496e-09
1.89735e-09
0.0175355
0.000620688
1.1187e-08
0.0421238
6.59811e-09
0.0550417
0.0033505
1.55121e-09
0.000623779
3.30599e-06
0.00010443
0.0198236
0.000111331
0.000791748
0.0580857
0.000907686
0.0589584
0.000393463
5.09347e-08
0.0287659
0.0228007
0.00123745
0.0470486
0.0371353
0.050527
5.02375e-07
6.62655e-07
0.053177
0.00447089
0.00156414
1.28391e-07
0.0617557
0.0134017
0.000469926
0.0157364
0.00104155
2.53795e-08
0.0274406
0.0646717
3.68633e-07
0.00633846
0.00515522
0.00335894
0.00476011
0.000417452
0.00115806
0
0.00111552
7.02234e-09
0.000431572
0.0230911
0.000684019
0.0115664
2.33402e-06
6.43457e-06
5.69666e-06
0.0354255
5.83475e-06
0.00709573
3.26065e-07
0.0121444
1.1456e-05
2.48178e-07
2.2494e-09
2.73396e-07
1.60054e-07
5.89239e-08
0
0.0721771
0.0130902
3.02559e-05
0.0105571
3.74072e-06
4.66251e-06
0.0152462
6.27679e-06
0.0148485
0.0122323
0.00878904
0.0115385
0.101304
1.38609e-05
2.36097e-07
1.08873e-05
0.00957324
3.51366e-07
4.52235e-07
3.83144e-07
0.00318471
0.00596596
0.0665787
9.34051e-06
0.00695675
0.00516139
0
1.79819e-07
1.46925e-07
1.23922e-09
0
5.16969e-09
0.0391086
9.23786e-10
0.000156158
0
1.38504e-09
0.0001491
2.029e-06
0.00341906
0
0.0149946
0
8.77306e-05
1.019e-10
0
0.0255788
0.0310385
0.0368843
0.014792
1.75148e-05
2.68465e-05
1.20213e-10
2.79284e-05
1.68343e-10
0.00012229
0.00282982
0
9.61226e-06
0.0353086
0.00234641
1.92663e-07
1.4418e-07
0.0101355
0.000973729
1.30714e-07
9.65807e-08
0.0599138
4.62758e-07
3.61863e-07
3.37119e-07
2.75635e-07
0.0480464
0.00517073
4.49639e-07
1.56548e-09
0.00632255
8.53526e-08
0.0490063
3.57398e-07
8.09198e-08
0.0511499
2.86087e-07
0.0544407
1.46256e-07
2.45609e-07
0.00343539
0.000485447
0.106479
0.0395905
0.000485676
0.000349227
0.0329802
6.42545e-08
0.0149267
8.91134e-08
0.000396445
0.11993
0.000550447
0.109299
0.000314602
0.000757268
0.000418818
0.000787837
1.19163e-07
1.23656e-07
0.0562859
0.000451813
0.00341449
0.000379042
0.00293613
0.000455319
0.000344021
0.115269
0.00055721
0.000487299
0.00249457
0.00249939
0.0033505
0.0889365
4.21537e-07
1.96068e-07
0.0809583
5.6484e-08
1.92064e-08
9.47199e-08
0.00437146
0.000310685
4.6051e-06
0.00503227
0.0046092
0.00644269
2.96874e-06
0.00375928
0.000390312
0.0351044
8.88304e-08
0.000332595
0.129027
4.39857e-08
0.00364065
8.57742e-06
0.00168424
0.00164605
2.29775e-08
3.68076e-08
0.00371589
1.44979e-08
0.00372874
0.057803
3.18072e-08
0.108837
0.116202
2.10976e-10
1.33991e-07
2.05968e-07
0.135281
4.71242e-07
0.000753074
0.0382023
1.22717e-07
0.0518141
1.77295e-07
1.15846e-07
5.2434e-08
7.58253e-08
0.0392237
0.00335755
9.26735e-08
0.012221
0.000555508
0.0641482
0.0610518
0.0595434
0.0199587
0.0179945
0.0196873
6.09398e-06
0.0225163
5.07988e-06
2.32121e-07
3.81586e-08
0.0198753
5.82364e-08
7.17866e-08
1.32899e-07
0.00451177
1.68481e-07
1.10481e-07
2.85307e-08
4.13591e-08
7.41513e-08
1.16204e-07
0.00545704
2.19228e-08
2.65674e-08
0.115577
0.000104696
0.114749
0.0294732
0.000922102
0.000812872
0.0241847
0.0198207
0.00196011
0.154572
0.0158229
0.058715
0.0190401
3.36307e-09
5.52104e-09
0
7.7918e-05
0.0399543
0.0452143
1.21096e-08
0
0.000263903
1.75403e-08
0.000206193
0.000649947
0.000133416
0.00644877
0.0174823
0.000103913
1.56598e-07
1.41371e-06
0.0840519
1.69976e-07
1.66506e-06
0
0
0
9.61018e-07
0.0605606
2.82954e-07
0.0528263
8.2752e-06
0.00375024
0.00397335
0.00497777
0.057385
0.0607532
0.0584874
0.0103181
0
0.00150461
0.0784121
0.103391
0.0662075
2.7489e-08
0.00174801
0.0728226
0.080485
7.89799e-08
0.0019863
0.0738245
0.0882371
0.00300621
3.86046e-06
0.0364686
0.0232199
0.0197314
0.00416913
0.0190409
0.000110337
0.0140859
5.07287e-05
0.00999544
0.0118532
0.0927646
0.100373
0.142492
0.143272
0.146327
0.0221045
0.0164103
0.113665
0.120447
1.2418e-05
7.33934e-05
0.122314
0.121961
0.012299
0.0128869
0.0110643
0.110458
0.118217
0.0505009
0.121433
0.00736528
0.0085888
0.0100295
0.102917
0.111457
0.116161
1.90439e-06
1.16236e-06
0.00195947
0.10099
0.100903
0.10679
0.00431825
0.109501
0.122835
0.115204
5.9249e-07
0.00409793
0.000134722
0.00509849
0.00976194
2.14044e-06
0.0743801
0.0830335
0.0887205
4.19638e-08
1.01332e-07
5.71452e-08
6.603e-08
0.0013675
0.00103609
3.51282e-09
0.0066935
2.77937e-05
3.7205e-09
7.31287e-09
0.000144124
1.80197e-08
0.00281032
0.133397
0.000347757
0.0002338
0.000246678
0.000199508
0.000393418
0.00034641
0.000299999
0.00026878
9.46192e-08
0.000358473
0.000320333
0.00965625
0.0116575
7.84327e-05
0.000138161
0
0.00400776
0
0.00704038
0.00856003
0.0140834
0.000168462
0.000148023
3.16799e-08
2.57357e-05
3.43087e-06
0.00435372
5.25758e-05
2.07805e-06
0.00387826
3.01978e-09
0.00571665
5.85687e-10
1.37748e-08
0.00436642
1.14824e-05
0.00727887
7.61749e-09
0.0446451
0.0102647
3.59754e-05
1.52805e-05
0.00805449
2.0484e-09
0.000166084
0.00320229
0.000145964
0.000160493
0.00812659
0.000201924
0.0520982
0.0521301
3.47255e-08
0.00266329
0.00365653
3.9094e-08
2.07672e-08
0.0575706
0.0183566
0.0302617
3.94076e-10
0.0188727
7.71919e-10
6.42952e-05
0.0437482
0.044597
0.03787
0.000179836
0.000163405
0.0146197
0.00630108
0.0053198
7.95485e-07
0.0195049
0.0227481
0
1.32289e-05
0.111276
0.00452678
3.9793e-07
2.97481e-06
0.104745
0.00215587
0.00108454
0.0675316
0.0727672
0.00201808
0.0702392
4.12112e-08
0.0150578
0.000324788
0.00212657
0.0728155
7.89283e-07
0.0791355
0.00303977
1.37087e-07
0
0.0137285
1.63649e-06
0.0578244
3.15493e-06
8.09899e-06
0.00707735
7.10123e-06
0
0
0
1.02271e-05
3.64097e-06
0
0.025552
0
0.0140464
2.71144e-06
2.96512e-06
0
1.55576e-05
0.0101732
0.0143089
3.30627e-05
0
0
0.00805952
0.00940587
0.00755313
0.0721239
0.00646507
0
0
0.00631945
0.00781374
0.000142092
0.00512287
0.0033889
4.10951e-09
0
2.11742e-06
0.00413746
2.26575e-06
1.39105e-06
0.00928516
1.91416e-05
8.39683e-06
0.00696979
0.0654135
0.0742798
0
1.26499e-06
0.119799
1.60261e-06
1.58829e-06
3.07978e-06
0.0565272
1.73899e-05
1.84834e-06
8.09994e-07
2.87796e-05
0.0130208
2.71512e-06
0.0143725
0.0101009
0.0613012
6.001e-10
0.00954158
0.011415
0.0136418
0.0228564
0.000108406
0.017011
5.68605e-05
2.77647e-05
0.0122936
0.00684224
2.12503e-06
0.00726034
1.01747e-05
0.00772762
0.0663731
0
0.000434098
2.06019e-09
0.000335432
1.08028e-06
2.06397e-06
0.000707947
3.28588e-05
0.00132386
0.0201347
6.86766e-10
3.07991e-10
2.95672e-07
0.0642635
0.071322
0
0.00360615
9.84402e-10
0
2.32895e-10
0.00601716
6.68662e-06
0.0021388
0
0.0689678
2.5894e-06
0
0.00964084
0.0094265
0.117357
0.0184968
0.121295
0.109851
0.0514873
0.119361
0.00364565
1.49038e-05
0.14258
0.0211575
6.57804e-06
0.135746
0.139017
4.17192e-07
0.00201894
1.55726e-05
0
0.00857797
0.0314283
0.000277707
0.000154163
0.0256732
0.13215
0.000875736
0
0.0225353
1.18645e-05
0.134675
0.117764
0.0454341
0.118449
0.0583834
0.000709026
0.00155121
0.111978
0.00427685
0.00132248
0.0406155
0.000301064
0.000564368
0.00420358
6.53072e-06
0.0199921
0.000252565
0.00752882
1.13595e-05
0.126709
0.00401916
5.94615e-05
2.63396e-05
0.00891834
0.0145913
3.60965e-10
0.0347463
1.14892e-08
2.436e-09
9.78962e-09
0.00143021
3.72289e-09
0.012346
0.000130383
0.00515581
0.0480443
4.1392e-05
0.0200645
0.0105294
2.25412e-05
5.3996e-08
4.13328e-09
1.54084e-07
0.0032201
0
0
0
3.26393e-06
0.0552818
0.000176146
0.0799022
0.0567809
0.0739314
2.66235e-05
4.65556e-06
0.111321
0.00263981
6.53696e-06
0.0444963
0.0616961
2.25546e-05
2.17348e-06
7.76986e-09
2.65676e-06
2.89552e-05
0.00858114
0.0946595
0.0416018
0.109636
1.71209e-06
1.16518e-06
1.34917e-06
1.97086e-06
0.0156493
0.0407335
0.00343911
0
0.0199491
0.053281
0
0.000670199
0.10635
4.96557e-07
0.0545719
0.00228226
0.00350702
0
6.92431e-07
0.000455445
0.0161881
0
0.0217639
3.05177e-08
0.0163251
0.000203447
0.00139664
0.0215306
0
3.74301e-08
7.21111e-07
0.00122943
0.0258591
0.000187098
3.23328e-08
0.0199476
0.0514602
2.43376e-07
3.91231e-05
0.0186495
0.0228644
8.66713e-05
6.8719e-09
0.00170529
0.0158182
0
0.000579757
0
1.19081e-06
1.07037e-06
0
6.5519e-06
0
0.0032433
0.0514758
0.0175364
1.35659e-09
0.0168946
1.66241e-07
0.00122073
0.00830556
1.01684e-05
9.87866e-07
0.112089
0.000325688
5.16277e-08
0.0195719
8.38219e-09
0.0229523
0.000638014
0.0025364
0.0856597
2.5707e-06
0.0182043
2.87215e-06
0.022012
0.00137871
2.3852e-07
4.31363e-08
0.0222537
4.27725e-09
3.13419e-07
1.26456e-08
0.0189549
6.94723e-10
0.0767658
3.81634e-06
0.00409001
0.00668318
8.39088e-06
1.84098e-06
3.44153e-08
8.85922e-07
0.00296321
1.60544e-05
0.10718
0.0768744
9.24871e-05
0.00395826
6.1845e-06
0.00622769
0.00953608
0.0663357
0.00227261
0.00556754
5.0195e-06
0.0180178
0.0114809
0.001618
0.0648885
0.0021795
0
0.0156965
0.0718814
0
0.00308993
1.64736e-07
0.055176
0.0046972
1.1751e-10
4.74009e-06
0.0653268
0.0700221
2.48358e-06
8.16382e-06
0.00085995
0.00298681
0
0.0542285
0.00110967
0.00419958
2.76431e-06
1.58997e-05
1.91988e-10
8.14311e-05
0.00430842
0
0.00156812
0
0.0630795
0.0346431
6.99443e-08
0.00318467
0
0.0341833
0.00376939
0.00769751
0.0268824
0.00438999
0
3.77712e-06
0.000310142
0.000276049
2.11266e-09
0
3.57789e-08
2.94479e-07
3.57017e-06
0.0944269
0
1.33669e-07
0.0814324
0.0663147
7.38641e-08
0.103116
0.00430004
0.101082
0.0875154
0.0102052
0.0473415
0.0243551
0.091776
0.00233599
0.0851085
2.2494e-07
0.0885599
3.01544e-05
1.1819e-07
0.0544396
8.68027e-05
0.000131484
0.0163491
1.53137e-06
0.0124599
5.29968e-05
8.66358e-05
7.69975e-09
6.1543e-07
0.075222
0.0402938
1.21595e-05
0.013933
0.00511662
0.0032821
0
0.0451886
0.00160739
0
0.0200732
0.00356802
0.0677098
0.0158767
0.00329231
0.00450124
2.56081e-07
0.0641866
3.95225e-07
1.65894e-07
0.000433712
0.00165089
0
0.100209
0.000158513
0.00356851
0.00111005
0
0.00317005
0.0118666
0
0
0.000308954
2.1092e-10
8.50425e-08
1.52993e-08
0.0161661
0.000748438
0.00970196
0
0
0.00625254
0
0
0.00378656
0
0.00830294
0
0
3.30911e-06
0.00413019
0.00652006
7.32981e-06
6.67811e-10
0
0.030533
0.0312833
0.00022254
0.0341632
0.0453714
0.000315761
1.89044e-10
3.20928e-08
0.00252939
0.00102941
4.19654e-10
5.69932e-10
2.67838e-09
0.00360288
0.000157248
1.75029e-05
7.31308e-05
1.39824e-10
5.2311e-08
2.64344e-10
5.89579e-09
1.08399e-10
0.00298532
4.69875e-05
0
9.49718e-05
0.0231087
0.0002135
0.000228517
0.0422949
0.0799139
0.00017801
0
0.000606103
0
0.0797758
0
4.3024e-05
0.0196199
0.00010051
1.90642e-07
0.0552577
1.01824e-06
0
0.0246849
0.000198817
0.0292683
0.00365282
0.0162762
0.0498685
0.000267403
4.94122e-06
1.24735e-05
0.0812772
0.0808969
0.00230664
1.4821e-06
0.00842934
1.30627e-05
0
0
4.51927e-07
0.000525557
0.0503181
0.0540941
0.000928056
0.00601777
5.87484e-06
0
0.117546
0.0362715
0.0307314
0
0.0665324
0.000411713
0.102289
2.51088e-07
0.0444296
0.00253812
0.153682
0.0038909
0
0.0160058
9.04229e-06
0.151286
0.0302434
0.00703827
0.00422506
1.73487e-07
1.24223e-07
0
2.54454e-05
0.0113538
0.000250555
8.82279e-05
5.57063e-08
0
0.00326841
1.37292e-06
0.0144295
0.133446
0.126391
0.128264
0.150502
7.26127e-05
0
0.105073
0.148758
0
5.77264e-06
0.00858017
0.0128079
1.25793e-05
1.38083e-08
0.152877
0.000730288
0.0417489
2.32336e-07
0.0146315
4.22089e-08
4.84396e-08
6.74993e-05
0.129719
6.40727e-10
0.150888
0.0342262
0.000293571
0.0569354
0.0114255
0.0212032
0
0.135279
0.110407
0.104357
0.00223332
0.135794
0.042273
0.0014064
0.150522
0.0257877
1.33877e-08
0.0955523
1.94598e-07
0.000310565
0.151912
0.084779
7.38667e-06
0.152895
0.0918621
0.000238363
0.046038
0.0481098
0.000326292
0.15413
0.0188883
0.00174051
0.00791349
0.0685729
0.08704
0
0.0744091
2.6383e-07
6.28113e-05
2.42095e-08
0.00429449
4.52416e-05
0.0161115
5.88049e-07
0.0582602
0
0.0122846
0.10392
0.00519876
0.00331232
0.0953379
0.00343477
0.00422995
0.0129478
4.65145e-10
0.154114
0.041581
0.00359051
0.0003889
0.016939
0.024616
6.45987e-09
0.102416
0.0138083
1.18626e-05
0.000528552
0.00583576
0
0.00418823
8.26725e-06
0.00180972
0.0304948
0.000350595
0.00144054
1.0766e-05
2.18697e-05
0.0183853
0.0202765
0.0960572
2.161e-07
0.0607258
0.0123801
0.0687386
0.0845555
0.00226244
0.151879
1.7961e-05
6.64556e-06
0.0318531
0.000116865
0.0110027
1.36749e-05
0.148989
2.08264e-08
0.000582688
0.154663
0.0573279
0
0.00509654
0.0202619
0.00856673
0.0175407
0
0.0018124
7.67868e-05
0.0508292
1.1152e-07
0.0459858
0.000351475
7.58774e-07
0.00117827
0.00226863
1.71191e-06
0.0828976
1.01639e-06
0.000372459
0.0507085
8.61375e-08
0.00231639
0.0851224
0.00384732
8.87468e-08
0.000411924
0.111563
8.06994e-07
0.0292668
1.17415e-06
1.60842e-06
0.0181798
0.0161126
0.000468757
0.00777176
0
0
2.18517e-05
0.00125035
0.0106471
0
0.00688365
0.00976497
3.02601e-05
9.26106e-09
3.29338e-06
6.29578e-05
1.03785e-05
0.0648149
3.23697e-06
0.0901105
9.0326e-07
9.42532e-07
0
3.36533e-06
0
0
0.00816492
0.118296
1.57161e-05
0
0.0778611
5.02852e-05
6.49486e-06
5.50175e-05
9.55597e-10
0.0216586
0.0872203
0.000180139
0.0266098
0.0507228
2.05646e-05
3.10439e-05
2.78956e-09
0.00365327
1.02013e-06
4.63364e-07
0.00141845
0.0288938
2.78353e-05
0.00824926
6.57675e-06
0.0073216
0.022265
0.139103
1.25642e-09
0.00444922
0.0974999
0.0179672
0.0388204
0.000255483
0.0904854
0.103766
0.0377095
0.00824071
0.0810466
2.11945e-05
4.99898e-05
0.00170916
0.000984214
0.0332214
1.34461e-07
0.00206139
0.0551678
0.00355693
0.0512633
1.65463e-07
6.23331e-08
0.00144731
0.0736946
0.00172214
0.0007138
0.0589383
0.010941
0.0907501
0.0947372
0.000485917
0.0373632
0.114634
0.150249
0.00614585
0
0.017766
0.000274345
0.0399751
0
0.0235645
5.24336e-06
0.136205
2.4416e-05
0.00988541
8.80611e-06
7.84033e-10
0.00306614
3.41141e-06
0.00934568
0.155031
2.75015e-06
0.000325362
8.94928e-06
0.123513
6.15615e-05
6.16208e-08
8.65276e-07
0.0018586
0.11686
0.123087
0.0378816
0.00391571
1.77131e-05
0.14621
0.0244536
0.0904495
0.0859309
0.0647182
1.07165e-07
0.000838352
0.0418364
0.00752131
0.00468212
0.0567651
0.112
0.101344
1.64197e-09
1.1068e-07
0.045981
0.000396859
0.000260673
0.0358751
0.0177564
4.46285e-06
0.00619594
0.0935928
0.0941284
0.0706848
0.0794554
2.38991e-07
0.0966284
1.30595e-05
0.0771529
2.57979e-07
0.0882307
4.44164e-08
0.00272625
2.40461e-08
0.0509137
0.00350235
0.000223621
2.53262e-05
0.0115168
0.0166895
0.000242858
0.00855745
2.12753e-08
0.0232758
0.000178432
4.51554e-10
1.016e-08
0.0383968
0.00544866
4.12518e-09
0.0642398
7.08151e-07
0
0
0.045404
5.75846e-08
0
0.00277991
0.00511226
2.8314e-06
0.00808562
1.16497e-05
0
9.46438e-05
6.76189e-06
1.0354e-05
0.00280931
2.03131e-06
0.0769993
1.88723e-06
0
0
0.0183368
0.000207998
2.16688e-06
5.58096e-07
0.0651652
0
0.00335842
0
0.0643134
0.00329928
7.31745e-07
0.059149
0.00426452
0
0
0.00358719
0.0923113
5.54064e-07
0.0153657
5.48789e-05
1.36708e-09
0.00997071
0.0830634
0.0101813
0.0920295
0.0107719
0.0127782
0.000288524
0.0857318
0.0088466
4.98737e-08
5.31581e-07
9.23602e-06
0.138075
3.36554e-05
7.94336e-06
0.138794
4.4767e-07
0.037943
0.0715121
0.155135
0.00082746
1.64882e-09
1.89728e-08
0.0173591
0.00343799
0
0.000192944
0.000232972
0.0637189
0.0257802
0.00404648
0.0112674
0.0355008
0.000197112
0.00147688
0
0
0.028221
0
0.00871326
0.00359854
1.25524e-06
1.9573e-08
0.00480413
0.154936
0.051794
4.34631e-07
6.96634e-07
5.64426e-07
6.72439e-07
0.00213503
3.64028e-07
0.00200089
0.000412982
0.141883
3.89207e-08
0.0568907
4.55807e-07
0.00283874
5.89719e-07
6.69841e-08
6.4077e-07
0.0975799
0.12109
7.33321e-07
0.00239421
2.97404e-06
0.00189931
0.0688556
3.06418e-07
3.9311e-06
0.00940839
0.0143067
0.000179336
0.00666802
4.7534e-07
0.0672096
0.00133902
0.00972958
5.41192e-06
2.47485e-06
0.00589882
0.114771
8.86169e-06
0
0
1.81663e-06
3.09827e-05
5.07053e-06
0.00989177
0.0644026
0.0581676
7.75586e-09
0.00365631
0.00104586
0.0010249
0.152248
0
0.00820012
0
0.00405741
0.0718021
2.33864e-06
0
6.74145e-07
4.83763e-08
0.0499374
0.0477121
0.00404513
0
0
0.00766859
1.00865e-05
1.53411e-05
0.088696
0.004271
0.013509
1.39494e-09
2.43137e-06
0.00205951
0.000241755
0.0987153
0.0289486
0.0955785
1.86218e-09
1.07258e-08
1.44785e-08
4.10275e-09
7.54883e-07
5.63741e-09
0.000688441
0.000707903
0.00733988
0.0674063
0.0241167
0.00912508
1.65245e-05
3.50838e-10
4.63583e-05
0.000433209
1.47427e-05
3.33787e-06
0.00276261
2.1739e-07
0.0036924
0.00522145
0.0034666
0.000293122
0.00453103
0.0777978
0
0
1.82324e-07
0.0528794
0.0616245
1.10337e-06
8.3834e-08
0.055178
5.49755e-08
0.0548132
0.0734641
0.0484176
0.0514718
3.48888e-10
3.49041e-07
0.0548683
0.00470685
0.000325012
0.0208337
1.05695e-08
0
0.00456231
8.52393e-05
0.000118076
8.80963e-05
0.0307936
1.83836e-09
0.0292255
0.0366081