# vtk DataFile Version 2.0
Unstructured Grid by M++
ASCII
DATASET UNSTRUCTURED_GRID
POINTS 4072 float
  0.609375   0.843750 0
  0.562500   0.843750 0
  0.531250   0.843750 0
  0.875000   0.828125 0
  0.984375   0.828125 0
  0.953125   0.828125 0
  0.937500   0.828125 0
  0.843750   0.828125 0
  0.812500   0.828125 0
  0.781250   0.828125 0
  0.765625   0.828125 0
  0.734375   0.828125 0
  0.703125   0.828125 0
  0.671875   0.828125 0
  0.640625   0.828125 0
  0.609375   0.828125 0
  0.593750   0.828125 0
  0.562500   0.828125 0
  0.546875   0.828125 0
  0.531250   0.828125 0
  0.515625   0.828125 0
  0.968750   0.812500 0
  0.937500   0.812500 0
  0.921875   0.812500 0
  0.890625   0.812500 0
  0.859375   0.812500 0
  0.828125   0.812500 0
  0.796875   0.812500 0
  0.765625   0.812500 0
  0.750000   0.812500 0
  0.718750   0.812500 0
  0.687500   0.812500 0
  0.656250   0.812500 0
  0.625000   0.812500 0
  0.593750   0.812500 0
  0.578125   0.812500 0
  0.546875   0.812500 0
  0.531250   0.812500 0
  0.515625   0.812500 0
  0.984375   0.796875 0
  0.562500   0.015625 0
  0.953125   0.796875 0
  0.921875   0.796875 0
  0.906250   0.796875 0
  0.875000   0.796875 0
  0.843750   0.796875 0
  0.812500   0.796875 0
  0.781250   0.796875 0
  0.750000   0.796875 0
  0.734375   0.796875 0
  0.703125   0.796875 0
  0.671875   0.796875 0
  0.640625   0.796875 0
  0.609375   0.796875 0
  0.578125   0.796875 0
  0.562500   0.796875 0
  0.531250   0.796875 0
  0.515625   0.796875 0
  0.968750   0.781250 0
  0.546875   0.000000 0
  0.937500   0.781250 0
  0.906250   0.781250 0
  0.890625   0.781250 0
  0.859375   0.781250 0
  0.828125   0.781250 0
  0.796875   0.781250 0
  0.765625   0.781250 0
  0.734375   0.781250 0
  0.718750   0.781250 0
  0.687500   0.781250 0
  0.656250   0.781250 0
  0.625000   0.781250 0
  0.593750   0.781250 0
  0.562500   0.781250 0
  0.546875   0.781250 0
  0.515625   0.781250 0
  0.984375   0.765625 0
  0.953125   0.765625 0
  0.921875   0.765625 0
  0.890625   0.765625 0
  0.875000   0.765625 0
  0.843750   0.765625 0
  0.812500   0.765625 0
  0.781250   0.765625 0
  0.750000   0.765625 0
  0.718750   0.765625 0
  0.703125   0.765625 0
  0.671875   0.765625 0
  0.640625   0.765625 0
  0.609375   0.765625 0
  0.578125   0.765625 0
  0.593750   0.750000 0
  0.562500   0.765625 0
  0.546875   0.765625 0
  0.531250   0.765625 0
  0.562500   0.750000 0
  0.968750   0.750000 0
  0.937500   0.750000 0
  0.906250   0.750000 0
  0.875000   0.750000 0
  0.859375   0.750000 0
  0.828125   0.750000 0
  0.796875   0.750000 0
  0.765625   0.750000 0
  0.734375   0.750000 0
  0.703125   0.750000 0
  0.687500   0.750000 0
  0.671875   0.750000 0
  0.656250   0.750000 0
  0.625000   0.750000 0
  0.546875   0.750000 0
  0.531250   0.750000 0
  0.515625   0.750000 0
  0.562500   0.734375 0
  0.984375   0.734375 0
  0.953125   0.734375 0
  0.921875   0.734375 0
  0.890625   0.734375 0
  0.859375   0.734375 0
  0.843750   0.734375 0
  0.812500   0.734375 0
  0.781250   0.734375 0
  0.750000   0.734375 0
  0.718750   0.734375 0
  0.687500   0.734375 0
  0.671875   0.734375 0
  0.656250   0.734375 0
  0.640625   0.734375 0
  0.546875   0.734375 0
  0.531250   0.734375 0
  0.515625   0.734375 0
  0.562500   0.718750 0
  0.968750   0.718750 0
  0.937500   0.718750 0
  0.906250   0.718750 0
  0.875000   0.718750 0
  0.843750   0.718750 0
  0.796875   0.718750 0
  0.765625   0.718750 0
  0.734375   0.718750 0
  0.703125   0.718750 0
  0.687500   0.718750 0
  0.671875   0.718750 0
  0.656250   0.718750 0
  0.625000   0.718750 0
  0.546875   0.718750 0
  0.531250   0.718750 0
  0.515625   0.718750 0
  0.562500   0.703125 0
  0.953125   0.703125 0
  0.921875   0.703125 0
  0.890625   0.703125 0
  0.859375   0.703125 0
  0.828125   0.703125 0
  0.781250   0.703125 0
  0.750000   0.703125 0
  0.718750   0.703125 0
  0.687500   0.703125 0
  0.656250   0.703125 0
  0.546875   0.703125 0
  0.531250   0.703125 0
  0.515625   0.703125 0
  0.984375   0.687500 0
  0.937500   0.687500 0
  0.921875   0.687500 0
  0.906250   0.687500 0
  0.875000   0.687500 0
  0.843750   0.687500 0
  0.812500   0.687500 0
  0.765625   0.687500 0
  0.734375   0.687500 0
  0.703125   0.687500 0
  0.671875   0.687500 0
  0.640625   0.687500 0
  0.593750   0.687500 0
  0.562500   0.687500 0
  0.546875   0.687500 0
  0.531250   0.687500 0
  0.515625   0.687500 0
  0.968750   0.671875 0
  0.937500   0.671875 0
  0.921875   0.671875 0
  0.906250   0.671875 0
  0.890625   0.671875 0
  0.859375   0.671875 0
  0.828125   0.671875 0
  0.796875   0.671875 0
  0.765625   0.671875 0
  0.750000   0.671875 0
  0.718750   0.671875 0
  0.687500   0.671875 0
  0.656250   0.671875 0
  0.625000   0.671875 0
  0.593750   0.671875 0
  0.578125   0.671875 0
  0.546875   0.671875 0
  0.531250   0.671875 0
  0.515625   0.671875 0
  0.984375   0.656250 0
  0.953125   0.656250 0
  0.937500   0.656250 0
  0.921875   0.656250 0
  0.906250   0.656250 0
  0.875000   0.656250 0
  0.843750   0.656250 0
  0.812500   0.656250 0
  0.781250   0.656250 0
  0.750000   0.656250 0
  0.734375   0.656250 0
  0.703125   0.656250 0
  0.671875   0.656250 0
  0.640625   0.656250 0
  0.609375   0.656250 0
  0.578125   0.656250 0
  0.562500   0.656250 0
  0.531250   0.656250 0
  0.515625   0.656250 0
  0.968750   0.640625 0
  0.937500   0.640625 0
  0.906250   0.640625 0
  0.890625   0.640625 0
  0.859375   0.640625 0
  0.828125   0.640625 0
  0.796875   0.640625 0
  0.765625   0.640625 0
  0.734375   0.640625 0
  0.718750   0.640625 0
  0.687500   0.640625 0
  0.656250   0.640625 0
  0.625000   0.640625 0
  0.593750   0.640625 0
  0.562500   0.640625 0
  0.546875   0.640625 0
  0.515625   0.640625 0
  0.984375   0.625000 0
  0.953125   0.625000 0
  0.921875   0.625000 0
  0.890625   0.625000 0
  0.875000   0.625000 0
  0.843750   0.625000 0
  0.812500   0.625000 0
  0.781250   0.625000 0
  0.750000   0.625000 0
  0.734375   0.625000 0
  0.718750   0.625000 0
  0.703125   0.625000 0
  0.671875   0.625000 0
  0.640625   0.625000 0
  0.609375   0.625000 0
  0.578125   0.625000 0
  0.562500   0.625000 0
  0.546875   0.625000 0
  0.531250   0.625000 0
  0.968750   0.609375 0
  0.937500   0.609375 0
  0.906250   0.609375 0
  0.875000   0.609375 0
  0.859375   0.609375 0
  0.828125   0.609375 0
  0.796875   0.609375 0
  0.765625   0.609375 0
  0.750000   0.609375 0
  0.734375   0.609375 0
  0.718750   0.609375 0
  0.703125   0.609375 0
  0.687500   0.609375 0
  0.656250   0.609375 0
  0.625000   0.609375 0
  0.593750   0.609375 0
  0.562500   0.609375 0
  0.546875   0.609375 0
  0.531250   0.609375 0
  0.515625   0.609375 0
  0.984375   0.593750 0
  0.953125   0.593750 0
  0.921875   0.593750 0
  0.890625   0.593750 0
  0.859375   0.593750 0
  0.843750   0.593750 0
  0.812500   0.593750 0
  0.781250   0.593750 0
  0.750000   0.593750 0
  0.734375   0.593750 0
  0.718750   0.593750 0
  0.687500   0.593750 0
  0.671875   0.593750 0
  0.640625   0.593750 0
  0.609375   0.593750 0
  0.578125   0.593750 0
  0.562500   0.593750 0
  0.546875   0.593750 0
  0.531250   0.593750 0
  0.515625   0.593750 0
  0.968750   0.578125 0
  0.937500   0.578125 0
  0.906250   0.578125 0
  0.875000   0.578125 0
  0.890625   0.562500 0
  0.843750   0.578125 0
  0.828125   0.578125 0
  0.796875   0.578125 0
  0.765625   0.578125 0
  0.734375   0.578125 0
  0.703125   0.578125 0
  0.671875   0.578125 0
  0.656250   0.578125 0
  0.656250   0.562500 0
  0.625000   0.578125 0
  0.640625   0.562500 0
  0.593750   0.578125 0
  0.562500   0.578125 0
  0.546875   0.578125 0
  0.531250   0.578125 0
  0.515625   0.578125 0
  0.859375   0.562500 0
  0.828125   0.562500 0
  0.781250   0.562500 0
  0.750000   0.562500 0
  0.718750   0.562500 0
  0.687500   0.562500 0
  0.609375   0.562500 0
  0.578125   0.562500 0
  0.562500   0.562500 0
  0.546875   0.562500 0
  0.531250   0.562500 0
  0.515625   0.562500 0
  1.000000   0.812500 0
  0.578125   0.031250 0
  0.875000   0.546875 0
  0.625000   0.546875 0
  0.218750   0.000000 0
  0.640625   0.781250 0
  0.828125   0.093750 0
  0.031250   0.531250 0
  0.296875   0.328125 0
  0.296875   0.312500 0
  0.281250   0.312500 0
  0.765625   0.312500 0
  0.031250   0.859375 0
  0.093750   0.265625 0
  0.109375   0.250000 0
  0.187500   0.671875 0
  0.421875   0.640625 0
  0.031250   0.062500 0
  0.140625   0.125000 0
  0.562500   0.906250 0
  0.125000   0.437500 0
  0.203125   0.937500 0
  0.125000   0.421875 0
  0.140625   0.406250 0
  0.093750   0.437500 0
  0.109375   0.421875 0
  0.093750   0.421875 0
  0.109375   0.406250 0
  0.328125   0.125000 0
  0.750000   0.906250 0
  0.328125   0.109375 0
  0.750000   0.890625 0
  0.312500   0.125000 0
  0.734375   0.906250 0
  0.281250   0.343750 0
  0.265625   0.359375 0
  0.500000   0.796875 0
  0.078125   0.015625 0
  0.062500   0.015625 0
  0.484375   0.796875 0
  0.484375   0.781250 0
  0.062500   0.000000 0
  0.015625   0.250000 0
  0.062500   0.046875 0
  0.484375   0.828125 0
  0.484375   0.812500 0
  0.062500   0.031250 0
  0.281250   0.671875 0
  0.062500   0.234375 0
  0.328125   0.765625 0
  0.312500   0.750000 0
  0.015625   0.671875 0
  0.781250   0.187500 0
  0.015625   0.265625 0
  0.453125   0.250000 0
  0.453125   0.234375 0
  0.031250   0.265625 0
  0.046875   0.250000 0
  0.093750   0.015625 0
  0.265625   0.656250 0
  0.734375   0.281250 0
  0.156250   0.015625 0
  0.062500   0.265625 0
  0.046875   0.281250 0
  0.031250   0.281250 0
  0.343750   0.781250 0
  0.328125   0.781250 0
  0.265625   0.687500 0
  0.265625   0.703125 0
  0.156250   0.109375 0
  0.578125   0.890625 0
  0.484375   0.984375 0
  0.062500   0.203125 0
  0.328125   0.718750 0
  0.343750   0.734375 0
  0.343750   0.750000 0
  0.453125   0.500000 0
  0.437500   0.500000 0
  0.234375   0.093750 0
  0.171875   0.375000 0
  0.437500   0.531250 0
  0.468750   0.546875 0
  0.453125   0.546875 0
  0.187500   0.015625 0
  0.187500   0.000000 0
  0.609375   0.781250 0
[...]
CELL_DATA 7648
SCALARS scalar_value float 1
LOOKUP_TABLE default
0.044452
0.0468358
0.0524708
0.043196
0.0118011
0.0106597
0.011452
0.00944154
0.0448671
0.0504936
0.0532464
0.00631026
0.0052437
0.00513274
0.0153223
0.0138209
0.0145162
0.0116537
0.000112609
0.000107873
0.000126686
9.3519e-05
1.48575e-05
1.09835e-05
1.19542e-05
1.7212e-05
9.46602e-06
0.0662914
0.0672885
7.56535e-07
9.28371e-07
1.26207e-06
6.96106e-07
2.0613e-06
2.5107e-06
3.31242e-06
1.98269e-06
6.94155e-07
8.98767e-07
1.2023e-06
5.89297e-07
1.29129e-06
0.0205932
0.0232388
0.0216039
0.0754505
0.0773258
0.084233
6.64676e-06
0.105613
0.0738568
5.53156e-05
9.949e-06
1.20045e-05
0.00338209
1.54989e-05
0.0036106
0.00267737
3.80935e-06
5.54679e-06
8.0879e-06
4.03683e-05
1.58191e-05
0.00306017
0.00289219
1.80849e-10
2.25526e-10
8.07543e-06
0.00267435
4.71596e-09
0.00256995
0
0.00614277
0.00936833
0.00473544
2.35876e-10
0.0609678
4.05474e-10
0.00376606
0.0151375
0.0183834
0
4.35659e-09
2.1571e-10
0.0688466
2.44401e-06
0.00173814
0.00158767
0.00246854
0
2.87259e-07
0
0.000150488
0.00019499
0
6.57345e-06
0.0137218
1.19398e-05
0.019106
0.0202632
0.0116367
2.01509e-05
0.0122575
0.0188189
4.56721e-05
0.00100317
0.01011
0.0653343
0.0504442
2.09364e-07
5.76532e-06
0.00119749
0.0011358
1.71196e-10
0.000238749
1.7916e-10
0.000293935
0.000182821
5.36127e-06
0.00953529
0.00864223
0
0
0.00021969
1.01469e-10
2.75464e-10
1.50568e-10
0.118816
0.125967
0.106222
1.15945e-09
0.0421058
0
0.00801076
0.00481064
0.00599611
0.0901346
1.54046e-05
2.23758e-06
0.0634763
0.00492156
0.0647995
0.0683962
9.64512e-07
0.0646637
0.0852776
0.00688151
5.4406e-05
0.0616749
0.00258737
0.00234414
1.97075e-05
2.53581e-05
3.23177e-05
0.000367321
0.00036832
0.0186996
1.4481e-06
0.124868
1.28828e-05
0
0.000129126
0.000149148
0.00534871
0.0963897
0.0955441
1.02606e-06
0.0856054
3.19758e-05
0.0168843
0
0.179587
0.0634021
0.000458518
0.001063
0.00010177
0.0206584
0.0759528
0.00277157
0.0845268
0.0853403
0.00340893
0.067255
0.0652751
0
0.000114201
0.096811
0
0
0.0667034
0
0.0638263
0.00794536
1.8486e-09
9.38504e-07
0.00810134
0.00969423
0.00739684
1.68743e-10
2.23936e-10
2.13811e-10
0.0405221
0.000165877
0.0869253
0.0828659
0.000119067
1.89175e-05
0.00578397
0.00505385
0.00504887
2.06138e-06
3.21821e-06
4.74955e-06
2.89222e-06
0.173083
0.000314896
0
0.0166084
0
0.00753374
0.0146524
0.155835
0.158513
7.11376e-07
0.144304
1.41769e-07
0.00320099
0.00560005
0.119737
0.109772
0.0438839
0.0468154
0.0856474
0.00176292
0.0577689
0.0534744
0.053298
0.0502687
0.0593097
1.46284e-10
0.0522593
0.000293529
0.00221057
0.00230928
0.0023037
0.158744
0.0056498
0.147153
0.151915
1.00522e-07
0.134
0.00286182
1.77765e-05
2.30767e-05
2.14225e-05
0.062689
0.000921326
0.00354317
0.00330943
8.65744e-05
0.000103426
9.92977e-05
0.0415492
2.55267e-06
7.06178e-07
0.159624
1.13374e-06
0.117285
7.58614e-07
0.145889
0.162214
6.8567e-05
0
0.00858792
0.000532874
3.78964e-07
0.0245648
0.00601218
0.00146699
0.0017923
4.55761e-07
0.0651951
0.00498777
0.000535513
0.0030268
0.0142337
0.000494138
4.54251e-07
7.50058e-08
0.0317165
1.32314e-07
0.00425067
0.00240792
9.89738e-09
0.00148462
0.00148994
1.28632e-08
0.00180715
0
0.00347202
8.21435e-05
0.00435707
0.00166925
0.00306506
6.19046e-05
5.07126e-05
4.47757e-05
0.000231355
0.00827163
0.000735099
0.000581832
0.0384915
0.00604072
4.00006e-09
0.00282922
0.0102863
0.000286394
0.00287184
0.000233758
0.00761477
0.000180815
4.29641e-05
0.0533226
0.0365854
0.0472287
0.000644802
0.000150805
0.0330092
0.0400064
0.000318678
0.0246972
1.92688e-05
0.0877148
0.0390279
0.00267893
0.0371216
0.00234238
0.0204404
0.0178997
4.61568e-05
0.0236107
0.0256494
0.0213526
0
0.00678115
0.02326
0.02943
0.00095218
4.76472e-08
1.12968e-10
1.89334e-10
1.68955e-10
0.000126173
0.0235386
6.17483e-08
0.0258607
2.26927e-07
0.00761822
0.00688688
0.00605266
0.000952846
0.000820566
0.000916217
0.00760556
0.0359922
0.00372023
0.0258022
2.18034e-09
3.99996e-08
2.85216e-08
0.0451406
0.00627959
1.77803e-07
0.139141
1.02909e-07
0.152479
0.000614872
2.43016e-08
0.00148965
5.28445e-05
0.00112923
0.0270895
0.000702229
0.00192549
0.125268
0.0064768
0.124029
0.00419122
8.42728e-07
0.0158282
0.0112209
0.0111823
0.0274251
0.0184658
0.0380192
4.05589e-06
7.71306e-06
0.0192247
0.00192902
0.0136614
1.05233e-06
0.0552147
0.0292799
0.00127439
0.0306462
0.00975964
4.13627e-07
0.114288
0.0445791
2.90795e-06
0.000886507
0.00619472
0.00451501
0.00109854
0.00422823
0.00207088
1.30733e-10
0.00194848
1.19082e-07
0.00448361
0.103093
0.00678522
0.00270765
3.30526e-05
0.0001018
9.01499e-05
0.00606961
9.23503e-05
0.00893591
5.43761e-06
0.0303298
0.000100997
4.15187e-06
3.99661e-08
4.54285e-06
2.7038e-06
1.00564e-06
0
0.0408658
0.0438177
0.000304138
0.0390811
5.34081e-05
7.39278e-05
0.0212833
9.94496e-05
0.0199944
0.0163517
0.0281979
0.0324947
0.0475285
0.000117967
4.03434e-06
0.00010284
0.0290838
5.94149e-06
7.62399e-06
6.42282e-06
0.00528394
0.00358442
0.0428211
9.97554e-05
0.02797
0.0191579
0
3.0815e-06
2.50213e-06
2.20493e-08
0
9.08222e-08
0.100106
1.41168e-08
0.00179871
0
1.98533e-08
0.00170467
2.0283e-05
0.0147722
0
0.0511981
2.51577e-10
0.0010649
9.28002e-10
4.64886e-10
0.0869875
0.0971166
0.106053
0.0325494
0.000147855
0.000215826
2.22383e-09
0.000386951
3.10808e-09
0.0014328
0.00426783
6.09039e-10
7.30271e-05
0.00757955
0.0113577
2.93012e-06
2.19804e-06
0.0119746
0.00681863
1.19349e-06
8.76358e-07
0.0744695
6.98713e-06
5.4871e-06
5.02374e-06
4.24317e-06
0.0143645
0.0096007
7.3214e-06
2.79444e-08
0.0106437
1.35313e-06
0.142529
5.54459e-06
1.2546e-06
0.135613
4.45448e-06
0.0753786
1.7251e-06
2.89893e-06
0.0030092
0.00342503
0.0267043
0.0659299
0.00336677
0.00245249
0.0578553
1.04968e-06
0.00235399
1.45407e-06
0.00149883
0.0784974
0.00178301
0.0816564
0.00116514
0.00229793
0.00150402
0.00208858
1.3812e-06
1.37869e-06
0.0316621
0.00448731
0.000812613
0.00280114
0.00254855
0.00315874
0.00248843
0.0337717
0.00433286
0.00385554
0.0154946
0.0147645
0.0197278
0.137129
5.15237e-06
2.28246e-06
0.127049
9.90365e-07
3.37542e-07
1.6292e-06
0.0174456
0.00208109
4.65532e-05
0.0198115
0.0189128
0.023474
4.16182e-05
0.00290093
0.00279231
0.0640881
1.47152e-06
0.00360906
0.132282
7.65563e-07
0.00102177
0.000124797
0.011074
0.0109637
3.89088e-07
6.17891e-07
0.00274469
2.47079e-07
0.0271422
0.108945
4.64641e-07
0.153167
0.147661
1.90914e-09
1.36653e-06
3.26772e-06
0.0520544
7.71853e-06
0.00725455
0.133222
1.96513e-06
0.150131
2.79831e-06
1.84675e-06
5.39044e-07
1.22167e-06
0.138287
0.000417193
1.48602e-06
0.00147822
0.00569877
0.0139846
0.0126319
0.0114978
0.0282403
0.0262795
0.0289991
9.67473e-05
0.0125648
8.06588e-05
3.38597e-06
3.23063e-07
0.0302282
5.0587e-07
5.98439e-07
2.08382e-06
0.000431427
2.63496e-06
1.7099e-06
2.66077e-07
3.88229e-07
1.23787e-06
1.9244e-06
0.00409906
1.96965e-07
2.27858e-07
0.0392737
0.00122926
0.0348469
0.0859219
0.00875943
0.00788005
0.00743028
0.00692909
0.0138026
0.0962054
0.0204217
0.131545
0.00635919
5.89249e-08
9.56934e-08
1.19648e-10
0.000473232
0.0945463
0.10442
1.80355e-07
2.94948e-10
0.00290649
2.39746e-07
0.002295
0.00650207
0.00147747
0.0222177
0.0850282
0.00118145
2.2071e-06
1.26102e-05
0.0646993
2.4794e-06
1.55268e-05
0
0
0
1.55674e-05
0.0175918
4.64338e-06
0.0145786
5.23798e-05
0.0269743
0.0280309
0.033171
0.0628286
0.0662269
0.0599598
0.0551615
0
0.0117565
0.166822
0.143862
0.135493
3.34678e-07
0.000170212
0.139718
0.149064
1.04312e-06
0.012873
0.137755
0.148999
0.0189623
6.20136e-05
0.0246781
0.0391821
0.0356599
0.00173174
0.0731442
0.00115518
0.0604587
0.000555373
0.0412158
0.046199
0.0739437
0.0761616
0.0804627
0.0749615
0.0738398
0.0722237
0.0589887
0.0696384
0.0701853
0.000121246
0.000688479
0.0738594
0.0656485
0.0540524
0.0547897
0.0479009
0.085466
0.08692
0.142138
0.0823499
0.0372686
0.043068
0.0479865
0.100087
0.103021
0.0992305
3.03892e-05
1.86375e-05
0.0162941
0.116264
0.119931
0.114002
0.00259337
0.124383
0.124864
0.117491
9.56147e-06
0.0232281
0.00158305
0.0271383
0.0563291
2.35826e-05
0.0939541
0.0995956
0.0984041
7.05906e-07
1.6799e-06
9.53669e-07
1.10163e-06
0.002725
0.0021946
3.07615e-08
0.00388919
0.000206729
6.55603e-08
1.28149e-07
0.000614496
2.77764e-07
0.000368843
0.139641
0.00219762
0.00227126
0.00231124
0.00194475
0.00417134
0.00371468
0.00327059
0.00170298
7.86833e-07
0.00220579
0.00190156
0.052174
0.0591053
0.000888961
0.00150935
2.43779e-10
0.00124402
8.47831e-10
0.0418975
0.0490335
0.00779086
0.00118896
0.00102266
5.52514e-07
0.000327409
5.04636e-05
0.00180374
0.000629337
3.31005e-05
0.0046595
5.34483e-08
0.00618725
1.06309e-08
2.37607e-07
0.00469061
0.000147615
0.042764
1.34664e-07
0.141221
0.0539014
0.000416807
0.000188392
0.0447272
1.80855e-08
0.0017022
0.00549227
0.00149143
0.00161356
0.0341092
0.00227795
0.113412
0.105723
3.63154e-07
0.00250665
0.00147832
6.25619e-07
3.30829e-07
0.0121389
0.0198924
0.0964851
3.60473e-09
0.0427044
7.0123e-09
0.000462785
0.114075
0.113789
0.103523
0.00206306
0.00189202
0.00303042
0.00871624
0.00783925
1.27738e-05
0.0914289
0.101243
0
0.000120876
0.0584307
0.00603657
6.46983e-06
4.23252e-05
0.179688
0.000262738
0.00934682
0.166588
0.172608
0.0157307
0.16358
6.25092e-07
0.0602643
0.00354372
0.0143428
0.147474
1.12592e-05
0.151221
0.000325742
2.18175e-06
7.35684e-10
0.00577442
2.61438e-05
0.132721
3.07616e-05
8.20215e-05
0.0245117
6.95508e-05
0
0
0
0.000137725
3.68556e-05
0
0.0802301
0
0.0537022
2.98893e-05
3.08068e-05
0
0.000150721
0.0323104
0.0416821
0.000312255
0
0
0.0491385
0.0549759
0.0466126
0.046504
0.0294807
2.76458e-10
0
0.0314354
0.0360964
0.00165195
0.0252111
0.00364194
7.20579e-08
0
3.36231e-05
0.00349097
3.56513e-05
2.21317e-05
0.0474155
0.000227471
0.000104383
0.0374807
0.0625249
0.0641902
1.34905e-10
1.91985e-05
0.155992
2.41563e-05
2.42432e-05
4.90619e-05
0.0142754
0.000104517
2.96748e-05
1.31132e-05
0.00019612
0.0212039
4.33658e-05
0.0216421
0.0158773
0.025328
8.23733e-09
0.0317478
0.037333
0.0416276
0.0721282
0.00107474
0.0589929
0.000583071
0.000294269
0.0462772
0.0216992
1.98706e-05
0.0270372
0.000102467
0.0276331
0.037563
1.16963e-10
0.00140112
3.6365e-08
0.00118239
1.75401e-05
3.33369e-05
0.00248984
0.000393953
0.00899196
0.0772914
9.81019e-09
4.50845e-09
4.97053e-06
0.0343565
0.0354452
0
0.00131045
1.74463e-08
0
2.2032e-09
0.0351318
8.65705e-05
0.000278395
0
0.0609188
2.35465e-05
0
0.0410606
0.01216
0.0345765
0.00243986
0.0377772
0.0289283
0.0962785
0.0368282
0.000471498
0.000179979
0.142291
0.0204748
8.27428e-05
0.1467
0.152845
6.7616e-06
0.00278555
0.000233954
0
0.048048
0.0630596
0.00210641
0.00123037
0.0542298
0.0478962
0.00587158
2.64455e-10
0.0537506
0.000148843
0.158463
0.0431519
0.0970532
0.0388822
0.106901
0.00506937
0.00220001
0.0364197
0.000747139
0.00245024
0.0932027
0.00260837
0.00551434
0.000833256
0.00010351
0.0937257
0.00273218
0.0412424
0.000141009
0.0919603
0.00986092
0.000673828
0.000318139
0.0503208
0.0103657
6.35912e-09
0.0055738
1.15063e-07
2.21203e-08
9.38946e-08
0.00224559
3.5904e-08
0.0675747
0.00151008
0.0233638
0.00916969
0.000315326
0.0348636
0.0488369
0.000258808
4.97041e-07
4.14541e-08
1.70167e-06
0.0178031
0
0
1.18074e-10
5.20547e-05
0.0128511
0.00188028
0.0158922
0.0453807
0.0441757
0.000254449
6.67145e-05
0.174668
0.000378244
0.000103566
0.00762209
0.0236548
0.000155318
3.21102e-05
1.32725e-07
4.09835e-05
0.000377684
0.0500328
0.18094
0.00753738
0.171973
2.77011e-05
1.38531e-05
1.51656e-05
3.17184e-05
0.0177931
0.00690715
0.00200365
0
0.0251382
0.00993591
0
0.00505696
0.089224
8.20377e-06
0.0108939
0.000309359
0.00113709
0
1.11644e-05
0.00474187
0.0192087
0
0.0358849
2.69061e-07
0.00300828
0.00232197
0.00400238
0.034816
0
6.1594e-07
9.25588e-06
0.0109548
0.0457863
0.00137817
3.33071e-07
0.0322888
0.107355
2.99594e-06
0.000320863
0.0378434
0.0425566
0.000677705
1.2235e-07
0.0145748
0.0267799
0
0.0043381
2.77842e-10
1.86428e-05
1.22862e-05
0
8.83752e-05
0
0.0242869
0.156145
0.0340548
2.2931e-08
0.0838002
1.48508e-06
0.0111335
0.0112839
6.31146e-05
1.58953e-05
0.0543397
0.00211064
4.36345e-07
0.0928322
1.39456e-07
0.00672012
0.00642125
0.018389
0.17404
3.91883e-05
0.0308244
4.61101e-05
0.0159198
0.00901696
2.00967e-06
3.82167e-07
0.00566602
7.28315e-08
4.06445e-06
1.09842e-07
0.00550007
1.20225e-08
0.0753954
4.33542e-05
0.0195829
0.0295974
9.45186e-05
1.34144e-05
5.85037e-07
1.40242e-05
0.0024543
0.000169785
0.0930578
0.078397
0.00109734
0.0194528
7.64835e-05
0.0328405
0.0551111
0.0849807
0.0130085
0.0319527
6.47954e-05
0.00891232
0.0638553
0.00934846
0.0746955
0.0117867
0
0.0801114
0.0793997
7.38052e-10
0.0160276
1.7374e-06
0.0226905
0.00220485
1.10057e-09
6.68339e-05
0.072338
0.0715777
2.41957e-05
0.000122324
0.0054407
0.0148111
0
0.0696252
0.00681906
0.0232669
3.47933e-05
0.000223001
1.69774e-09
0.000879305
0.00196257
0
0.00926214
0
0.0296714
0.129267
1.12483e-06
0.0179764
0
0.127474
0.00143511
0.000828809
0.110236
0.00101906
0
5.31268e-05
0.00190382
0.00307214
3.76634e-08
1.2893e-09
6.08803e-07
4.79839e-06
4.38628e-05
0.124617
9.08635e-10
1.64851e-06
0.138283
0.126671
8.46857e-07
0.130063
0.0263462
0.157043
0.127908
0.010536
0.0306248
0.0631914
0.0160008
0.0161543
0.15969
3.10003e-06
0.0203685
0.000423417
2.04669e-06
0.147646
0.00109032
0.00160878
0.01765
2.38564e-05
0.0147476
0.000717141
0.00113105
1.34722e-07
9.13042e-06
0.159964
0.0113904
9.18871e-05
0.0248427
0.000806729
0.0149635
0
0.011788
0.00892669
0
0.0262808
0.00121825
0.156848
0.0799394
0.00205552
0.00758715
3.82735e-06
0.145765
3.26587e-06
1.35546e-06
0.00239191
0.00222148
1.00777e-09
0.0196431
0.00102924
0.015718
0.0100624
0
0.000637658
0.0587887
5.50997e-10
0
0.00249904
3.88288e-09
1.42421e-06
1.51329e-07
0.00537164
0.00738233
0.0532549
4.2956e-10
0
0.0374776
0
0
0.000861093
0
0.00862206
3.20247e-10
0
3.96265e-05
0.0213067
0.0315645
8.6666e-05
5.90789e-09
0
0.118616
0.118889
0.00214309
0.0944295
0.109227
0.00287269
2.91251e-09
4.2643e-07
0.0048967
0.00189494
7.65283e-09
8.93028e-09
4.72336e-08
0.00677469
0.00162837
0.000236956
0.000789606
2.57395e-09
8.86308e-07
4.81999e-09
1.03454e-07
1.71929e-09
0.0135104
0.00023754
3.32069e-10
0.000692813
0.0380393
0.00148346
0.00197655
0.0136372
0.0902929
0.00118973
0
0.00256356
1.15741e-09
0.0871115
0
0.00030276
0.0309424
0.000684447
2.13322e-06
0.0682185
1.44551e-05
0
0.0866178
0.00205052
0.00598069
0.0266851
0.00214214
0.0419854
0.00235622
7.87484e-05
0.000192307
0.0736007
0.0704198
0.0129388
1.7663e-05
0.0342578
0.000142117
0
0
6.60644e-06
0.00513226
0.150494
0.157083
0.0084279
0.012396
8.30799e-05
0
0.0503643
0.0266637
0.0815246
0
0.082328
0.0028128
0.0258668
4.06978e-06
0.137633
0.00474933
0.112886
0.00208445
0
0.0481254
0.000141962
0.115857
0.119134
0.00112507
0.00371987
2.17344e-06
2.00036e-06
5.17229e-10
0.000220034
0.0300366
0.000862499
0.000935619
5.4175e-07
1.42678e-09
0.000736465
2.19891e-05
0.00460402
0.157656
0.160126
0.163969
0.128061
0.00083802
5.83942e-10
0.0301435
0.134214
0
4.02631e-05
0.0141982
0.0201395
8.71024e-05
1.30229e-07
0.120305
0.0066465
0.140791
3.70593e-06
0.00210629
7.23334e-07
6.54611e-07
0.000672513
0.0868537
1.09982e-08
0.128081
0.125543
0.00305003
0.0106011
0.0537992
0.0790068
0
0.0689261
0.177633
0.179602
0.00025734
0.155494
0.128841
0.00312383
0.122025
0.0053563
2.35514e-07
0.0284402
3.30449e-06
0.00275534
0.121659
0.0680058
0.000116686
0.106933
0.0229938
0.00247621
0.137699
0.14491
0.0033338
0.105794
0.00976543
0.0144747
0.0481052
0.0965871
0.0178482
4.86494e-10
0.0909252
2.62794e-06
0.000694002
4.20472e-07
0.00206
0.00043415
0.00460099
8.5644e-06
0.139709
5.01513e-10
0.0362221
0.17285
0.0324225
0.0220764
0.168003
0.0250525
0.000461159
0.0126421
8.45247e-09
0.113023
0.136076
0.000782155
0.00393501
0.0345956
0.0431078
5.83014e-08
0.0305989
0.0286842
9.71193e-05
0.00527905
0.00115959
0
0.00183485
0.00011137
0.000184063
0.0108471
0.00289036
0.00356245
0.000167559
0.000278008
0.0249086
0.024285
0.0176678
3.33811e-06
0.152599
0.0095306
0.0937304
0.0168623
0.0149097
0.0779319
0.000271838
0.000105187
0.103362
0.00137559
0.0153933
8.63511e-05
0.116429
3.50543e-07
0.00593556
0.107822
0.141073
1.91351e-10
0.00305344
0.0940402
0.00173341
0.00377335
1.03827e-09
0.00363488
0.000812405
0.120494
1.56292e-06
0.10328
0.00304082
8.34762e-06
0.00704894
0.0119739
1.92955e-05
0.0189638
1.51322e-05
0.00322502
0.126888
1.28206e-06
0.000231035
0.0187097
0.00382091
1.1132e-06
0.00311326
0.0299705
6.37047e-06
0.0127163
1.82052e-05
2.59342e-05
0.0151749
0.0027007
0.00382493
0.0089037
0
0
0.000216096
0.00841819
0.0114686
1.59236e-10
0.00836379
0.0110967
0.000161702
1.61203e-07
2.99793e-05
0.000766263
0.000151146
0.0393459
5.22034e-05
0.0198756
1.09658e-05
1.50034e-05
0
3.6196e-05
0
0
0.0421284
0.167008
0.000195603
0
0.032568
0.000367207
8.89043e-05
0.000508228
1.72196e-08
0.0180243
0.0618639
0.00182938
0.0881464
0.00909763
0.000266982
0.000378777
4.84814e-08
0.00880224
8.06157e-06
3.63867e-06
0.00431709
0.00980143
0.000400904
0.00570879
4.30121e-05
0.0108693
0.0141108
0.0639439
2.24246e-08
0.00725918
0.0245233
0.0130959
0.10354
0.0024454
0.0185139
0.072546
0.110188
0.0498381
0.0440105
0.000172245
0.000492724
0.00309646
0.00918664
0.0944584
2.21546e-06
0.0165916
0.160388
0.0255385
0.114498
2.16904e-06
6.33812e-07
0.00398055
0.127679
0.0109039
0.00525253
0.116084
0.0106634
0.0174685
0.121232
0.00485142
0.133063
0.0472353
0.0836846
0.00821734
1.06656e-09
0.00998563
0.00252982
0.0995113
0
0.0809336
5.48355e-05
0.0775334
0.000248127
0.0150135
5.87386e-05
1.40496e-08
0.0021659
5.09602e-05
0.0256092
0.0962459
4.02506e-05
0.00214258
0.000117075
0.170112
0.000528366
9.35339e-07
8.44219e-06
0.000187663
0.172502
0.170324
0.0139159
0.0017257
0.000206248
0.123942
0.00857772
0.0178507
0.11232
0.106873
1.13099e-06
0.00787983
0.141928
0.000977326
0.0322969
0.0987789
0.161784
0.0267371
1.6245e-08
1.48214e-06
0.0952525
0.00320174
0.00222037
0.0829823
0.0113459
7.10385e-05
0.039976
0.0216053
0.020786
0.108367
0.115347
2.64185e-06
0.0212361
0.000199925
0.103171
2.71109e-06
0.0175701
4.38782e-07
0.000318661
2.3941e-07
0.0102849
0.00235846
0.00148106
0.000280333
0.0482564
0.0834996
0.00267216
0.0323369
2.02088e-07
0.00779899
0.00203836
8.01689e-09
9.23704e-08
0.00624054
0.0224956
3.7817e-08
0.109278
8.55468e-06
0
0
0.145969
9.1925e-07
0
0.00570285
0.00918347
2.00053e-05
0.0362577
0.00013305
0
0.00112513
0.000107131
0.000161477
0.00225361
3.11779e-05
0.106209
2.19958e-05
0
0
0.0664211
0.00127869
2.73826e-05
7.13522e-06
0.119325
0
0.000960421
0
0.168621
0.000857586
1.13407e-05
0.162757
0.0297802
1.36665e-10
0
0.00652853
0.0186786
7.51192e-06
0.0190785
0.000318575
2.44819e-08
0.0576594
0.102862
0.0584056
0.111503
0.061141
0.0063715
0.000985753
0.115514
0.0527465
8.06917e-07
8.3436e-06
0.000106431
0.112405
0.00023974
9.57593e-05
0.129426
7.28073e-06
0.0093647
0.149234
0.0868003
0.00192721
2.9012e-08
1.62852e-07
0.0272136
0.00104024
2.58836e-10
0.00207039
0.0024352
0.0499428
0.00583935
0.00807612
0.0276105
0.126219
0.00209204
0.0128765
0
0
0.00840584
1.77684e-10
0.014934
0.00113927
2.01905e-05
3.34531e-07
0.00460487
0.104625
0.0650546
4.01409e-06
6.31846e-06
5.24514e-06
6.52391e-06
0.0134793
3.21574e-06
0.0121651
0.00339313
0.0626683
4.86428e-07
0.0548553
3.92916e-06
0.0170025
5.11021e-06
8.22616e-07
5.18353e-06
0.022569
0.163418
6.19179e-06
0.0190142
3.97541e-05
0.0159495
0.0576647
2.52512e-06
5.12533e-05
0.0428872
0.0750671
0.0020258
0.0276977
7.27399e-06
0.163193
0.00277335
0.0181945
4.08541e-05
1.85152e-05
0.01174
0.151629
0.000111632
0
0
1.46068e-05
0.000257602
4.47538e-05
0.0256069
0.0536747
0.0496586
1.34898e-07
0.00163952
0.00269931
0.00299276
0.121861
0
0.0467885
1.16459e-10
0.00275521
0.0822116
2.42808e-05
0
1.07137e-05
8.13224e-07
0.0340373
0.0340243
0.0213659
0
0
0.0377307
0.000120342
0.000232069
0.0767268
0.00167286
0.0721271
2.4206e-08
3.94946e-05
0.00483515
0.000968554
0.0281726
0.00543777
0.0250808
3.29525e-08
1.87364e-07
2.53242e-07
7.22091e-08
1.05187e-05
9.92498e-08
0.00156081
0.00164727
0.00390497
0.0143176
0.0474276
0.0113522
9.58939e-05
6.41741e-09
0.000481188
0.00429988
0.000225329
5.35167e-05
0.000265815
3.42209e-06
0.0251225
0.0329821
0.000326302
0.00311663
0.029948
0.0620055
2.65821e-10