# vtk DataFile Version 2.0
Unstructured Grid by M++
ASCII
DATASET UNSTRUCTURED_GRID
POINTS 4072 float
  0.609375   0.843750 0
  0.562500   0.843750 0
  0.531250   0.843750 0
  0.875000   0.828125 0
  0.984375   0.828125 0
  0.953125   0.828125 0
  0.937500   0.828125 0
  0.843750   0.828125 0
  0.812500   0.828125 0
  0.781250   0.828125 0
  0.765625   0.828125 0
  0.734375   0.828125 0
  0.703125   0.828125 0
  0.671875   0.828125 0
  0.640625   0.828125 0
  0.609375   0.828125 0
  0.593750   0.828125 0
  0.562500   0.828125 0
  0.546875   0.828125 0
  0.531250   0.828125 0
  0.515625   0.828125 0
  0.968750   0.812500 0
  0.937500   0.812500 0
  0.921875   0.812500 0
  0.890625   0.812500 0
  0.859375   0.812500 0
  0.828125   0.812500 0
  0.796875   0.812500 0
  0.765625   0.812500 0
  0.750000   0.812500 0
  0.718750   0.812500 0
  0.687500   0.812500 0
  0.656250   0.812500 0
  0.625000   0.812500 0
  0.593750   0.812500 0
  0.578125   0.812500 0
  0.546875   0.812500 0
  0.531250   0.812500 0
  0.515625   0.812500 0
  0.984375   0.796875 0
  0.562500   0.015625 0
  0.953125   0.796875 0
  0.921875   0.796875 0
  0.906250   0.796875 0
  0.875000   0.796875 0
  0.843750   0.796875 0
  0.812500   0.796875 0
  0.781250   0.796875 0
  0.750000   0.796875 0
  0.734375   0.796875 0
  0.703125   0.796875 0
  0.671875   0.796875 0
  0.640625   0.796875 0
  0.609375   0.796875 0
  0.578125   0.796875 0
  0.562500   0.796875 0
  0.531250   0.796875 0
  0.515625   0.796875 0
  0.968750   0.781250 0
  0.546875   0.000000 0
  0.937500   0.781250 0
  0.906250   0.781250 0
  0.890625   0.781250 0
  0.859375   0.781250 0
  0.828125   0.781250 0
  0.796875   0.781250 0
  0.765625   0.781250 0
  0.734375   0.781250 0
  0.718750   0.781250 0
  0.687500   0.781250 0
  0.656250   0.781250 0
  0.625000   0.781250 0
  0.593750   0.781250 0
  0.562500   0.781250 0
  0.546875   0.781250 0
  0.515625   0.781250 0
  0.984375   0.765625 0
  0.953125   0.765625 0
  0.921875   0.765625 0
  0.890625   0.765625 0
  0.875000   0.765625 0
  0.843750   0.765625 0
  0.812500   0.765625 0
  0.781250   0.765625 0
  0.750000   0.765625 0
  0.718750   0.765625 0
  0.703125   0.765625 0
  0.671875   0.765625 0
  0.640625   0.765625 0
  0.609375   0.765625 0
  0.578125   0.765625 0
  0.593750   0.750000 0
  0.562500   0.765625 0
  0.546875   0.765625 0
  0.531250   0.765625 0
  0.562500   0.750000 0
  0.968750   0.750000 0
  0.937500   0.750000 0
  0.906250   0.750000 0
  0.875000   0.750000 0
  0.859375   0.750000 0
  0.828125   0.750000 0
  0.796875   0.750000 0
  0.765625   0.750000 0
  0.734375   0.750000 0
  0.703125   0.750000 0
  0.687500   0.750000 0
  0.671875   0.750000 0
  0.656250   0.750000 0
  0.625000   0.750000 0
  0.546875   0.750000 0
  0.531250   0.750000 0
  0.515625   0.750000 0
  0.562500   0.734375 0
  0.984375   0.734375 0
  0.953125   0.734375 0
  0.921875   0.734375 0
  0.890625   0.734375 0
  0.859375   0.734375 0
  0.843750   0.734375 0
  0.812500   0.734375 0
  0.781250   0.734375 0
  0.750000   0.734375 0
  0.718750   0.734375 0
  0.687500   0.734375 0
  0.671875   0.734375 0
  0.656250   0.734375 0
  0.640625   0.734375 0
  0.546875   0.734375 0
  0.531250   0.734375 0
  0.515625   0.734375 0
  0.562500   0.718750 0
  0.968750   0.718750 0
  0.937500   0.718750 0
  0.906250   0.718750 0
  0.875000   0.718750 0
  0.843750   0.718750 0
  0.796875   0.718750 0
  0.765625   0.718750 0
  0.734375   0.718750 0
  0.703125   0.718750 0
  0.687500   0.718750 0
  0.671875   0.718750 0
  0.656250   0.718750 0
  0.625000   0.718750 0
  0.546875   0.718750 0
  0.531250   0.718750 0
  0.515625   0.718750 0
  0.562500   0.703125 0
  0.953125   0.703125 0
  0.921875   0.703125 0
  0.890625   0.703125 0
  0.859375   0.703125 0
  0.828125   0.703125 0
  0.781250   0.703125 0
  0.750000   0.703125 0
  0.718750   0.703125 0
  0.687500   0.703125 0
  0.656250   0.703125 0
  0.546875   0.703125 0
  0.531250   0.703125 0
  0.515625   0.703125 0
  0.984375   0.687500 0
  0.937500   0.687500 0
  0.921875   0.687500 0
  0.906250   0.687500 0
  0.875000   0.687500 0
  0.843750   0.687500 0
  0.812500   0.687500 0
  0.765625   0.687500 0
  0.734375   0.687500 0
  0.703125   0.687500 0
  0.671875   0.687500 0
  0.640625   0.687500 0
  0.593750   0.687500 0
  0.562500   0.687500 0
  0.546875   0.687500 0
  0.531250   0.687500 0
  0.515625   0.687500 0
  0.968750   0.671875 0
  0.937500   0.671875 0
  0.921875   0.671875 0
  0.906250   0.671875 0
  0.890625   0.671875 0
  0.859375   0.671875 0
  0.828125   0.671875 0
  0.796875   0.671875 0
  0.765625   0.671875 0
  0.750000   0.671875 0
  0.718750   0.671875 0
  0.687500   0.671875 0
  0.656250   0.671875 0
  0.625000   0.671875 0
  0.593750   0.671875 0
  0.578125   0.671875 0
  0.546875   0.671875 0
  0.531250   0.671875 0
  0.515625   0.671875 0
  0.984375   0.656250 0
  0.953125   0.656250 0
  0.937500   0.656250 0
  0.921875   0.656250 0
  0.906250   0.656250 0
  0.875000   0.656250 0
  0.843750   0.656250 0
  0.812500   0.656250 0
  0.781250   0.656250 0
  0.750000   0.656250 0
  0.734375   0.656250 0
  0.703125   0.656250 0
  0.671875   0.656250 0
  0.640625   0.656250 0
  0.609375   0.656250 0
  0.578125   0.656250 0
  0.562500   0.656250 0
  0.531250   0.656250 0
  0.515625   0.656250 0
  0.968750   0.640625 0
  0.937500   0.640625 0
  0.906250   0.640625 0
  0.890625   0.640625 0
  0.859375   0.640625 0
  0.828125   0.640625 0
  0.796875   0.640625 0
  0.765625   0.640625 0
  0.734375   0.640625 0
  0.718750   0.640625 0
  0.687500   0.640625 0
  0.656250   0.640625 0
  0.625000   0.640625 0
  0.593750   0.640625 0
  0.562500   0.640625 0
  0.546875   0.640625 0
  0.515625   0.640625 0
  0.984375   0.625000 0
  0.953125   0.625000 0
  0.921875   0.625000 0
  0.890625   0.625000 0
  0.875000   0.625000 0
  0.843750   0.625000 0
  0.812500   0.625000 0
  0.781250   0.625000 0
  0.750000   0.625000 0
  0.734375   0.625000 0
  0.718750   0.625000 0
  0.703125   0.625000 0
  0.671875   0.625000 0
  0.640625   0.625000 0
  0.609375   0.625000 0
  0.578125   0.625000 0
  0.562500   0.625000 0
  0.546875   0.625000 0
  0.531250   0.625000 0
  0.968750   0.609375 0
  0.937500   0.609375 0
  0.906250   0.609375 0
  0.875000   0.609375 0
  0.859375   0.609375 0
  0.828125   0.609375 0
  0.796875   0.609375 0
  0.765625   0.609375 0
  0.750000   0.609375 0
  0.734375   0.609375 0
  0.718750   0.609375 0
  0.703125   0.609375 0
  0.687500   0.609375 0
  0.656250   0.609375 0
  0.625000   0.609375 0
  0.593750   0.609375 0
  0.562500   0.609375 0
  0.546875   0.609375 0
  0.531250   0.609375 0
  0.515625   0.609375 0
  0.984375   0.593750 0
  0.953125   0.593750 0
  0.921875   0.593750 0
  0.890625   0.593750 0
  0.859375   0.593750 0
  0.843750   0.593750 0
  0.812500   0.593750 0
  0.781250   0.593750 0
  0.750000   0.593750 0
  0.734375   0.593750 0
  0.718750   0.593750 0
  0.687500   0.593750 0
  0.671875   0.593750 0
  0.640625   0.593750 0
  0.609375   0.593750 0
  0.578125   0.593750 0
  0.562500   0.593750 0
  0.546875   0.593750 0
  0.531250   0.593750 0
  0.515625   0.593750 0
  0.968750   0.578125 0
  0.937500   0.578125 0
  0.906250   0.578125 0
  0.875000   0.578125 0
  0.890625   0.562500 0
  0.843750   0.578125 0
  0.828125   0.578125 0
  0.796875   0.578125 0
  0.765625   0.578125 0
  0.734375   0.578125 0
  0.703125   0.578125 0
  0.671875   0.578125 0
  0.656250   0.578125 0
  0.656250   0.562500 0
  0.625000   0.578125 0
  0.640625   0.562500 0
  0.593750   0.578125 0
  0.562500   0.578125 0
  0.546875   0.578125 0
  0.531250   0.578125 0
  0.515625   0.578125 0
  0.859375   0.562500 0
  0.828125   0.562500 0
  0.781250   0.562500 0
  0.750000   0.562500 0
  0.718750   0.562500 0
  0.687500   0.562500 0
  0.609375   0.562500 0
  0.578125   0.562500 0
  0.562500   0.562500 0
  0.546875   0.562500 0
  0.531250   0.562500 0
  0.515625   0.562500 0
  1.000000   0.812500 0
  0.578125   0.031250 0
  0.875000   0.546875 0
  0.625000   0.546875 0
  0.218750   0.000000 0
  0.640625   0.781250 0
  0.828125   0.093750 0
  0.031250   0.531250 0
  0.296875   0.328125 0
  0.296875   0.312500 0
  0.281250   0.312500 0
  0.765625   0.312500 0
  0.031250   0.859375 0
  0.093750   0.265625 0
  0.109375   0.250000 0
  0.187500   0.671875 0
  0.421875   0.640625 0
  0.031250   0.062500 0
  0.140625   0.125000 0
  0.562500   0.906250 0
  0.125000   0.437500 0
  0.203125   0.937500 0
  0.125000   0.421875 0
  0.140625   0.406250 0
  0.093750   0.437500 0
  0.109375   0.421875 0
  0.093750   0.421875 0
  0.109375   0.406250 0
  0.328125   0.125000 0
  0.750000   0.906250 0
  0.328125   0.109375 0
  0.750000   0.890625 0
  0.312500   0.125000 0
  0.734375   0.906250 0
  0.281250   0.343750 0
  0.265625   0.359375 0
  0.500000   0.796875 0
  0.078125   0.015625 0
  0.062500   0.015625 0
  0.484375   0.796875 0
  0.484375   0.781250 0
  0.062500   0.000000 0
  0.015625   0.250000 0
  0.062500   0.046875 0
  0.484375   0.828125 0
  0.484375   0.812500 0
  0.062500   0.031250 0
  0.281250   0.671875 0
  0.062500   0.234375 0
  0.328125   0.765625 0
  0.312500   0.750000 0
  0.015625   0.671875 0
  0.781250   0.187500 0
  0.015625   0.265625 0
  0.453125   0.250000 0
  0.453125   0.234375 0
  0.031250   0.265625 0
  0.046875   0.250000 0
  0.093750   0.015625 0
  0.265625   0.656250 0
  0.734375   0.281250 0
  0.156250   0.015625 0
  0.062500   0.265625 0
  0.046875   0.281250 0
  0.031250   0.281250 0
  0.343750   0.781250 0
  0.328125   0.781250 0
  0.265625   0.687500 0
  0.265625   0.703125 0
  0.156250   0.109375 0
  0.578125   0.890625 0
  0.484375   0.984375 0
  0.062500   0.203125 0
  0.328125   0.718750 0
  0.343750   0.734375 0
  0.343750   0.750000 0
  0.453125   0.500000 0
  0.437500   0.500000 0
  0.234375   0.093750 0
  0.171875   0.375000 0
  0.437500   0.531250 0
  0.468750   0.546875 0
  0.453125   0.546875 0
  0.187500   0.015625 0
  0.187500   0.000000 0
  0.609375   0.781250 0
[...]
CELL_DATA 7648
SCALARS scalar_value float 1
LOOKUP_TABLE default
0.00198505
0.0021534
0.00252798
0.0019267
0.0621189
0.0631831
0.0687828
0.0610418
0.00204948
0.00241845
0.00259248
0.0286432
0.0292418
0.0239898
0.000428789
0.000372801
0.00039578
0.000298303
1.29149e-06
1.24524e-06
1.50671e-06
1.06641e-06
4.90019e-07
1.12486e-07
1.23796e-07
1.8042e-07
9.76974e-08
0.00566145
0.00604432
1.70676e-08
2.1462e-08
2.88986e-08
1.69786e-08
4.80127e-08
6.02111e-08
7.87008e-08
5.05048e-08
1.84171e-08
2.4542e-08
3.26722e-08
5.74989e-09
1.28032e-08
0.00228496
0.00303421
0.00303633
0.0265265
0.0300487
0.0346805
1.07993e-07
0.0389655
0.0877824
1.24248e-06
1.45109e-07
1.89449e-07
0.00121434
1.63582e-07
0.00154025
0.000935689
4.02981e-08
5.91278e-08
8.67399e-08
4.97755e-07
3.18557e-07
0.00182216
0.00153069
0
0
1.09167e-07
0.000103294
0
4.77718e-05
0
0.000286076
0.000517491
0.00204815
0
0.00401464
0
0.00189992
0.000981151
0.0013039
0
0
0
0.0468313
6.43206e-08
3.0424e-05
2.75295e-05
0.00255978
0
3.67606e-09
0
1.95494e-06
2.68289e-06
0
7.41858e-08
0.00371294
1.27064e-07
0.00486968
0.00588846
0.000711378
4.04149e-07
0.000785732
0.00139752
9.03057e-07
3.44542e-05
0.000311738
0.042743
0.0391706
2.06651e-09
6.04081e-08
0.000164355
0.000162703
0
3.24815e-06
0
4.18906e-06
2.34562e-06
8.00596e-08
0.0543899
0.055465
0
0
5.3786e-06
0
0
0
0.0183663
0.0221092
0.0153729
0
0.00924134
0
0.0181607
9.77341e-05
0.0165936
0.00570574
2.42533e-07
4.48061e-08
0.0235293
0.00248997
0.0260533
0.0282379
1.93274e-08
0.0275981
0.0300476
0.054107
1.34594e-06
0.0859934
0.00185865
0.00174448
2.18742e-07
2.85707e-07
3.66529e-07
0.0076363
0.00632134
0.0445126
2.8956e-08
0.0487497
1.8789e-07
0
1.43071e-06
1.66809e-06
0.000215578
0.0296642
0.0342783
2.21011e-08
0.0258986
4.06325e-07
0.110867
0
0.0373056
0.0327943
0.00417694
0.000141045
4.04701e-06
0.077735
0.0162865
8.50523e-05
0.0189703
0.0222224
0.000115577
0.0515397
0.00504951
0
2.19266e-06
0.0999363
0
0
0.00697383
0
0.00784216
0.00543148
0
9.55356e-09
0.00606153
0.00726787
0.00593125
0
0
0
0.0440186
2.82151e-06
0.106815
0.10118
2.47462e-06
2.57869e-07
0.0181449
0.0195602
0.0163488
2.14289e-08
3.38022e-08
5.0254e-08
3.03613e-08
0.0288333
4.75726e-06
0
0.126718
0
0.00126204
0.0027531
0.0305215
0.0351929
9.35465e-09
0.0290854
2.02207e-09
0.000393524
0.000998188
0.023007
0.0193324
0.0978851
0.0875071
0.0123768
4.11334e-05
0.115707
0.118968
0.12424
0.118496
0.00873887
0
0.00753641
0.00601906
3.98686e-05
0.00185514
0.00206422
0.0256524
0.000134396
0.0228619
0.0264027
1.24951e-09
0.0213951
0.00119829
2.50391e-07
3.36291e-07
3.23857e-07
0.0041424
1.79554e-05
0.00356109
0.00401529
9.98828e-07
1.22795e-06
1.2055e-06
0.0127071
2.79358e-08
8.00396e-09
0.0233538
2.17342e-08
0.0331708
1.54179e-08
0.0172034
0.0723138
1.01841e-06
0
0.0487104
0.00627615
4.2393e-09
0.131389
0.00430296
2.50579e-05
3.1002e-05
4.61427e-09
0.00334718
0.00295041
0.00967968
5.89973e-05
0.0108151
0.0098087
5.28776e-09
1.99916e-09
0.00931084
3.39203e-09
0.0175505
0.000514605
2.29134e-10
3.02004e-05
3.05437e-05
3.16657e-10
3.77712e-05
0
0.00156135
1.93816e-06
8.69586e-05
0.0227681
0.00217688
6.95484e-07
5.66524e-07
5.04795e-07
3.60467e-06
0.00488143
1.12389e-05
8.29114e-06
0.0109212
0.0229142
0
0.00480466
0.000628728
4.10681e-06
0.00441359
3.23194e-06
0.000395507
2.35455e-06
4.75448e-07
0.00253437
0.005356
0.00949537
1.81547e-05
3.81083e-06
0.00524308
0.00714458
8.39904e-06
0.00579556
2.03955e-07
0.0294194
0.00162072
0.028343
0.00149472
0.0269274
0.0533354
0.0470655
1.09325e-06
0.00283952
0.0689567
0.0618124
0
0.0414989
0.000767978
0.00106126
0.0155103
1.2515e-09
0
0
0
1.39713e-06
0.010576
5.89929e-10
0.00934307
2.21073e-09
0.0533765
0.0479553
0.045994
2.50191e-05
2.02343e-05
2.16627e-05
0.000170739
0.00698088
0.00473967
0.00699745
0
5.45882e-10
3.46094e-10
0.00745585
0.000134631
1.97917e-09
0.0153027
1.17947e-09
0.0217598
0.0051439
2.76611e-10
0.000291295
5.74354e-07
2.2238e-05
0.0113628
3.01018e-05
0.00037438
0.0266274
0.00023597
0.0273807
8.34236e-05
8.83775e-09
0.0252447
0.0211646
0.00028324
0.0397851
0.0338328
0.0381193
1.20149e-07
1.35996e-07
0.0557285
0.00449093
0.000363814
3.04543e-08
0.0430252
0.00626203
0.000204884
0.0077398
0.00023413
4.44141e-09
0.00885697
0.0507231
8.88861e-08
0.0107591
0.00326967
0.00205549
0.0065988
9.098e-05
0.000627828
0
0.000608762
1.20861e-09
9.26872e-05
0.00722323
0.000149792
0.0154213
4.38033e-07
1.12226e-06
9.93758e-07
0.0518948
1.01762e-06
0.00434887
5.5817e-08
0.00532067
2.6542e-06
4.24473e-08
3.78937e-10
4.68989e-08
2.72776e-08
1.00188e-08
0
0.0619275
0.00486604
6.6291e-06
0.00373165
6.99757e-07
8.12753e-07
0.0087058
1.09389e-06
0.00862366
0.00716391
0.00338355
0.00473932
0.0942868
3.26267e-06
4.00035e-08
2.44692e-06
0.00379357
5.97728e-08
7.70098e-08
6.54157e-08
0.00177153
0.00519526
0.0538867
1.98911e-06
0.00236632
0.0018671
0
3.04405e-08
2.49503e-08
2.08496e-10
0
8.72163e-10
0.0167612
1.67002e-10
3.20351e-05
0
2.59049e-10
3.07382e-05
4.44526e-07
0.00114119
0
0.00551821
0
1.7559e-05
0
0
0.0095966
0.0120788
0.0148837
0.00687425
4.13958e-06
6.48969e-06
0
5.23994e-06
0
2.49031e-05
0.00165192
0
2.37598e-06
0.046872
0.00073931
3.48746e-08
2.60691e-08
0.00631867
0.000255313
2.9721e-08
2.20092e-08
0.0357034
8.40655e-08
6.55953e-08
6.16451e-08
4.95859e-08
0.0548597
0.00267155
7.77947e-08
2.64152e-10
0.00339881
1.51239e-08
0.0190236
6.405e-08
1.45058e-08
0.0209059
5.11748e-08
0.0308371
2.9903e-08
5.01675e-08
0.00255642
0.00012476
0.129976
0.0205347
0.000125542
8.97161e-05
0.016702
1.12256e-08
0.0233551
1.55693e-08
0.000149353
0.0947205
0.000226853
0.0818069
0.000118097
0.000325208
0.00016221
0.000359589
2.45524e-08
2.58953e-08
0.0483395
9.9478e-05
0.00459162
9.55155e-05
0.00219927
0.000117606
8.73764e-05
0.129829
0.000139034
0.000120303
0.000689342
0.000707065
0.000947786
0.0469997
8.47079e-08
4.03004e-08
0.0428521
9.47911e-09
3.2246e-09
1.60242e-08
0.00151957
8.1325e-05
1.00401e-06
0.00175041
0.00156733
0.0023264
5.60098e-07
0.00295846
9.95962e-05
0.017464
1.53546e-08
6.99385e-05
0.0807692
7.40995e-09
0.00451366
1.58338e-06
0.000453666
0.000440755
3.94428e-09
6.33691e-09
0.00298289
2.48456e-09
0.000946713
0.0284784
5.88601e-09
0.0588791
0.0658722
0
2.91057e-08
3.65004e-08
0.132494
8.12775e-08
0.000168576
0.0135156
2.1647e-08
0.0200481
3.1496e-08
2.04745e-08
1.1347e-08
1.33345e-08
0.0136798
0.00613951
1.63311e-08
0.0214502
0.00011973
0.0847265
0.0824548
0.0827592
0.0112596
0.0100307
0.0109103
1.06115e-06
0.0197714
8.84672e-07
4.29119e-08
8.92682e-09
0.0108557
1.34962e-08
1.6905e-08
2.36843e-08
0.00904692
3.00662e-08
1.98218e-08
6.42443e-09
9.29072e-09
1.27579e-08
2.00432e-08
0.0043045
5.00999e-09
6.18255e-09
0.122115
2.13353e-05
0.127226
0.0118605
0.000206497
0.000180218
0.0276416
0.021525
0.000512838
0.121316
0.00935463
0.0262526
0.0211337
5.71227e-10
9.41206e-10
0
2.14849e-05
0.0177392
0.0203133
2.21936e-09
0
5.52034e-05
3.35825e-09
4.30047e-05
0.000142051
2.80704e-05
0.00241553
0.00527653
2.16128e-05
2.94646e-08
3.25193e-07
0.0626887
3.14321e-08
3.75882e-07
0
0
0
1.6633e-07
0.0702527
4.8836e-08
0.0626181
2.20948e-06
0.000957896
0.00102439
0.00131674
0.0363295
0.0385041
0.0382293
0.00302729
0
0.000374522
0.0349348
0.0566879
0.0308187
5.55143e-09
0.00347799
0.0348067
0.0387648
1.53518e-08
0.000538478
0.0358103
0.0443105
0.000825134
6.69392e-07
0.0289917
0.0120624
0.00999238
0.00426072
0.00670215
2.37885e-05
0.00465525
1.07302e-05
0.00334638
0.00408314
0.0679564
0.0749972
0.117858
0.122436
0.126573
0.00837651
0.00590285
0.0930626
0.100323
2.75123e-06
1.66129e-05
0.100082
0.105155
0.00400333
0.00426415
0.00361996
0.0812442
0.0884992
0.0199351
0.0942116
0.0022293
0.00261119
0.00312352
0.068131
0.0750679
0.0809986
3.31707e-07
2.02345e-07
0.000466945
0.0614985
0.0604467
0.067193
0.00378683
0.0664855
0.0777934
0.0735007
1.03209e-07
0.00117839
2.73648e-05
0.00150824
0.00274046
4.49488e-07
0.0440654
0.0502639
0.0556225
7.20983e-09
1.74843e-08
9.8524e-09
1.13749e-08
0.000712705
0.000523444
8.09901e-10
0.0058928
6.95639e-06
6.25493e-10
1.23316e-09
4.85018e-05
3.24157e-09
0.00502394
0.0822272
9.38466e-05
5.20575e-05
5.58807e-05
4.43579e-05
8.36397e-05
7.33051e-05
6.30127e-05
7.24089e-05
2.23111e-08
9.85299e-05
9.02606e-05
0.0028185
0.00353448
1.63768e-05
2.92631e-05
0
0.00477328
0
0.00195861
0.0024181
0.0124958
4.3176e-05
3.82905e-05
5.33474e-09
5.10157e-06
6.31487e-07
0.00445338
1.07112e-05
3.625e-07
0.00248654
5.10532e-10
0.00379113
0
2.34559e-09
0.00293564
2.26325e-06
0.00203755
1.27652e-09
0.0165995
0.00304629
7.43785e-06
3.06901e-06
0.0023229
4.70676e-10
3.61209e-05
0.00175326
3.17868e-05
3.51944e-05
0.00269809
4.18008e-05
0.0239864
0.0248514
7.46103e-09
0.00192534
0.00378272
6.8921e-09
3.66967e-09
0.0771422
0.0117828
0.0116612
0
0.00857722
1.75357e-10
1.6345e-05
0.0184351
0.01901
0.0157203
3.69184e-05
3.33903e-05
0.0203719
0.00371393
0.00306478
1.38904e-07
0.0059845
0.00713807
0
3.01785e-06
0.0978658
0.00274977
6.89843e-08
5.57307e-07
0.0511857
0.00392905
0.000256345
0.0280216
0.0306464
0.000499169
0.0300367
7.47565e-09
0.00514658
6.81142e-05
0.000566672
0.0336847
1.47443e-07
0.0374988
0.00591719
2.42514e-08
0
0.0138069
2.85117e-07
0.0255136
6.98718e-07
1.76492e-06
0.00262701
1.57014e-06
0
0
0
1.97202e-06
7.93317e-07
0
0.00990877
0
0.00489307
5.69211e-07
6.38761e-07
0
3.45987e-06
0.00391514
0.0057198
7.44805e-06
0
0
0.0022104
0.00262612
0.00206144
0.0583378
0.00206114
0
0
0.00192953
0.00247272
2.90228e-05
0.00157474
0.00229682
6.97357e-10
0
3.70568e-07
0.00311768
3.99493e-07
2.43867e-07
0.00279806
3.90539e-06
1.6757e-06
0.00204833
0.0441271
0.0525217
0
2.29175e-07
0.0667565
2.91343e-07
2.8663e-07
5.35988e-07
0.0698467
4.7896e-06
3.20796e-07
1.40292e-07
7.49805e-06
0.00696485
4.72032e-07
0.00794352
0.00552449
0.0605491
1.14659e-10
0.00358177
0.00430511
0.00532275
0.00880168
2.39305e-05
0.00622515
1.2362e-05
5.94358e-06
0.00430826
0.00269066
4.79191e-07
0.0025751
2.22324e-06
0.00280122
0.056913
0
0.000176757
3.49173e-10
0.000129211
1.86723e-07
3.57187e-07
0.000282794
6.69792e-06
0.000351549
0.0071195
1.28651e-10
0
5.04401e-08
0.0565191
0.0649115
0
0.00390316
1.6676e-10
0
0
0.00169951
1.31062e-06
0.00375735
0
0.048278
5.90994e-07
0
0.00317638
0.00565615
0.132118
0.0307112
0.132936
0.131141
0.0254725
0.13098
0.00654226
3.01759e-06
0.0894096
0.0144287
1.30508e-06
0.0821483
0.0833228
7.2606e-08
0.00123379
2.79431e-06
0
0.00245665
0.0149742
6.91714e-05
3.75433e-05
0.0119691
0.133261
0.000234752
0
0.00991024
2.36295e-06
0.0782087
0.120265
0.02115
0.126514
0.029155
0.000184151
0.000933548
0.120957
0.00671564
0.000710303
0.0182808
7.08204e-05
0.000125029
0.00624585
1.13791e-06
0.00612342
5.34043e-05
0.00219033
2.27149e-06
0.0946655
0.0018204
1.24212e-05
5.34917e-06
0.00253876
0.0115205
0
0.0523075
2.51184e-09
5.53765e-10
2.17846e-09
0.000823459
8.26376e-10
0.00354015
2.67157e-05
0.00165317
0.0671478
1.0256e-05
0.010335
0.00333044
4.66512e-06
1.2228e-08
9.02947e-10
3.23896e-08
0.000938569
0
0
0
5.67651e-07
0.0709164
3.76663e-05
0.108742
0.0416762
0.0619211
5.96303e-06
8.69112e-07
0.0566368
0.00451503
1.13919e-06
0.0650371
0.0630559
5.84386e-06
3.99359e-07
1.33246e-09
4.74926e-07
5.64499e-06
0.00240003
0.0439861
0.0594517
0.0558611
2.96151e-07
2.36734e-07
2.80939e-07
3.41642e-07
0.00981964
0.0598362
0.00306036
0
0.0118765
0.0751713
0
0.000169828
0.0754591
8.52898e-08
0.074841
0.0039566
0.00399157
0
1.20489e-07
9.76252e-05
0.00994754
0
0.0114425
7.02754e-09
0.0238054
4.18174e-05
0.000613429
0.0114174
0
6.51914e-09
1.41602e-07
0.000283774
0.0130985
4.71224e-05
6.98966e-09
0.0105962
0.0242135
4.87923e-08
9.3826e-06
0.00896143
0.0113707
2.12605e-05
1.14734e-09
0.000400963
0.0082825
0
0.000147093
0
2.11659e-07
2.20898e-07
0
1.26131e-06
0
0.000812631
0.0192662
0.00861835
2.34132e-10
0.00505047
3.81422e-08
0.000278249
0.00488677
2.74437e-06
1.71565e-07
0.102102
8.6602e-05
1.20898e-08
0.00596194
1.45466e-09
0.0268504
0.000138823
0.000650733
0.0388156
4.63352e-07
0.00950384
4.98126e-07
0.0172113
0.000372866
5.60362e-08
9.91737e-09
0.0277424
7.35362e-10
6.13247e-08
2.92683e-09
0.0224327
1.18825e-10
0.0511353
7.90647e-07
0.0012785
0.00216195
1.74588e-06
4.59702e-07
5.881e-09
1.56485e-07
0.00226605
3.4363e-06
0.0747546
0.0503236
1.87525e-05
0.00122124
1.23563e-06
0.0018487
0.00267539
0.0390555
0.000653634
0.00158836
9.84028e-07
0.0167714
0.00327141
0.000465294
0.0401133
0.000645794
0
0.00463408
0.0453297
0
0.000930461
3.52924e-08
0.0545569
0.00455111
0
8.92539e-07
0.0411143
0.045777
5.5022e-07
1.47869e-06
0.00023682
0.000921504
0
0.0317755
0.00031034
0.00122039
5.47352e-07
2.98659e-06
0
1.73411e-05
0.0042331
0
0.000446079
0
0.058769
0.0117858
1.23038e-08
0.000919021
0
0.0116624
0.00400096
0.0144547
0.00881486
0.00607462
0
7.11872e-07
8.52906e-05
5.74028e-05
3.56099e-10
0
6.10863e-09
5.11366e-08
7.14659e-07
0.0539401
0
2.67996e-08
0.041205
0.0321486
1.52957e-08
0.0596842
0.00119267
0.0522712
0.0477387
0.0067751
0.0382167
0.0102659
0.13104
0.000615857
0.0403929
4.27733e-08
0.113084
5.60872e-06
1.99266e-08
0.0218183
1.70639e-05
2.61634e-05
0.0105142
2.7275e-07
0.00771324
1.00261e-05
1.66827e-05
1.30028e-09
1.12785e-07
0.0336726
0.0471987
3.0151e-06
0.00714705
0.00832113
0.00105941
0
0.0548886
0.00047199
0
0.0117334
0.00396987
0.029155
0.00471834
0.00284557
0.00245028
4.67618e-08
0.0281344
9.36333e-08
3.94133e-08
0.000130288
0.00101727
0
0.135361
4.21962e-05
0.001173
0.000255514
0
0.00462413
0.0036466
0
0
7.49408e-05
0
1.45904e-08
3.36217e-09
0.0180864
0.000164235
0.00280242
0
0
0.00173892
0
0
0.00527274
0
0.00553554
0
0
6.69873e-07
0.00124263
0.00201721
1.49337e-06
1.5324e-10
0
0.0102637
0.0106735
4.97546e-05
0.0141255
0.0199645
7.26759e-05
0
6.22625e-09
0.00131943
0.000548169
0
1.01613e-10
4.50833e-10
0.00187793
3.40556e-05
3.36005e-06
1.55688e-05
0
8.9356e-09
0
9.97047e-10
0
0.000972208
1.42009e-05
0
2.40018e-05
0.0121352
5.50674e-05
5.37496e-05
0.0466711
0.0498375
4.67169e-05
0
0.000218935
0
0.050553
0
1.10497e-05
0.0105469
2.61898e-05
3.98505e-08
0.032981
1.90668e-07
0
0.0091149
4.31242e-05
0.0398426
0.000926255
0.0272359
0.0358212
6.23775e-05
8.59143e-07
2.20443e-06
0.0562267
0.0569976
0.000670107
3.00737e-07
0.0028443
2.76092e-06
0
0
8.34261e-08
0.000116613
0.01913
0.0207633
0.000212988
0.00293918
1.10439e-06
0
0.112432
0.0277952
0.0128885
0
0.0397941
0.000106907
0.124104
4.38871e-08
0.0167548
0.00134552
0.111516
0.00358209
0
0.00627761
1.58274e-06
0.107648
0.0100622
0.0112359
0.00311959
3.45238e-08
2.18535e-08
0
5.95549e-06
0.00483449
9.51927e-05
1.89208e-05
1.23349e-08
0
0.004497
2.38855e-07
0.016552
0.0773477
0.0710253
0.0720169
0.101757
1.50363e-05
0
0.120501
0.0978579
0
1.4758e-06
0.00460441
0.00696217
3.24238e-06
3.09412e-09
0.107307
0.000168388
0.0149357
4.10538e-08
0.0237883
7.16902e-09
9.31781e-09
1.48664e-05
0.10044
1.09932e-10
0.102138
0.0118415
6.33647e-05
0.0803228
0.00359368
0.00760569
0
0.117888
0.0556162
0.0508768
0.0041952
0.0801609
0.0161616
0.00069876
0.104194
0.0349849
2.24783e-09
0.108893
3.30721e-08
7.22868e-05
0.105734
0.0620371
1.28923e-06
0.113644
0.11294
5.15329e-05
0.0176729
0.0183128
7.09795e-05
0.115534
0.0172238
0.000415682
0.00217394
0.0386427
0.116493
0
0.0447671
5.78908e-08
1.32515e-05
4.08838e-09
0.0041308
1.0127e-05
0.0193477
1.08749e-07
0.0249799
0
0.00490086
0.0515797
0.00142236
0.000884598
0.0462694
0.000872129
0.00808682
0.00877259
0
0.111879
0.0152425
0.00508652
8.48855e-05
0.00813581
0.0125533
1.47264e-09
0.115812
0.00660561
2.83944e-06
0.000115726
0.0085421
0
0.0041838
1.5935e-06
0.00354098
0.0324089
8.4442e-05
0.000680486
1.8931e-06
4.33859e-06
0.0105963
0.0123844
0.13356
3.88079e-08
0.025198
0.00942066
0.0393194
0.114573
0.000608981
0.129859
3.19809e-06
1.15864e-06
0.0120227
2.37442e-05
0.00633053
3.67454e-06
0.105096
3.58837e-09
0.000126001
0.114995
0.0242341
0
0.00446096
0.00623932
0.0122624
0.0238245
0
0.000939586
1.64786e-05
0.0223427
2.10505e-08
0.0209265
8.29074e-05
1.59569e-07
0.000333902
0.000680434
3.55981e-07
0.106543
1.8599e-07
8.79961e-05
0.0215321
1.57738e-08
0.00463837
0.110983
0.00269396
1.7667e-08
0.000103026
0.132478
1.94889e-07
0.0284939
2.10069e-07
2.78676e-07
0.0132851
0.0244835
0.000114278
0.00496043
0
0
4.81906e-06
0.0003336
0.00691975
0
0.00429459
0.00620629
8.86296e-06
1.5714e-09
7.51438e-07
1.26253e-05
1.91223e-06
0.0538344
5.60378e-07
0.116863
1.81867e-07
1.65683e-07
0
7.14091e-07
0
0
0.00244766
0.0632502
3.14508e-06
0
0.0767133
1.27001e-05
1.24166e-06
1.25324e-05
1.60726e-10
0.0158756
0.0675483
3.93268e-05
0.0101085
0.0727084
4.03693e-06
6.27828e-06
4.75692e-10
0.00167669
2.46403e-07
1.11979e-07
0.000602807
0.0314077
5.0997e-06
0.00667157
1.72813e-06
0.00415298
0.0184755
0.126085
2.12135e-10
0.00246101
0.119031
0.0140069
0.0163073
5.7289e-05
0.121009
0.0804358
0.0149991
0.00226814
0.0709419
5.09629e-06
1.10592e-05
0.000928231
0.000222808
0.01356
2.32709e-08
0.000500104
0.0210677
0.000910279
0.0233072
3.22431e-08
1.35512e-08
0.000648477
0.0373162
0.000472402
0.00018298
0.0283819
0.00745003
0.124952
0.054981
0.000106543
0.0130413
0.111793
0.124253
0.00368373
0
0.0156129
6.26423e-05
0.0173523
0
0.00877764
1.12638e-06
0.112932
5.32178e-06
0.00549566
2.30115e-06
1.31746e-10
0.00251371
6.22099e-07
0.00393107
0.121753
5.07791e-07
8.58161e-05
1.74874e-06
0.0668081
1.44917e-05
1.11714e-08
1.91577e-07
0.00365694
0.0611343
0.0663522
0.0394801
0.00390584
3.64177e-06
0.099222
0.0263344
0.122866
0.0497689
0.0338688
2.29508e-08
0.00018877
0.0148864
0.0131164
0.00121791
0.0290341
0.0595125
0.12087
3.6063e-10
2.13626e-08
0.0216998
9.66675e-05
6.17563e-05
0.0160392
0.0147175
7.7646e-07
0.00165965
0.118843
0.121699
0.0382379
0.0438843
5.0204e-08
0.125201
2.31843e-06
0.0444417
5.53509e-08
0.119372
9.77043e-09
0.00512819
5.27103e-09
0.0694636
0.00293061
5.88893e-05
5.32196e-06
0.0038292
0.00496898
5.08814e-05
0.0029996
4.75448e-09
0.0256221
3.6725e-05
0
2.31003e-09
0.0574078
0.00183581
9.34489e-10
0.033153
1.42944e-07
0
0
0.016626
1.0166e-08
0
0.00140418
0.00268526
7.16946e-07
0.00259652
2.41115e-06
0
1.91566e-05
1.1785e-06
1.81798e-06
0.00217913
3.64912e-07
0.0437011
3.86669e-07
0
0
0.00659727
5.70441e-05
4.28248e-07
1.09828e-07
0.0323845
0
0.00404937
0
0.0258016
0.00418524
1.31145e-07
0.0232566
0.00110398
0
0
0.00190011
0.124157
1.06076e-07
0.00925418
1.5473e-05
2.2993e-10
0.00279538
0.0495164
0.00286441
0.0550948
0.00304301
0.0118964
0.000111242
0.0489089
0.00244892
8.75372e-09
9.46449e-08
1.9034e-06
0.0963173
8.59333e-06
1.60542e-06
0.0903188
7.75109e-08
0.0472754
0.0325646
0.127314
0.000398709
2.79944e-10
4.41254e-09
0.00938319
0.00404083
0
4.11209e-05
5.02297e-05
0.0471498
0.0336591
0.00203751
0.00499358
0.0125234
4.22345e-05
0.000344123
0
0
0.0325276
0
0.00459817
0.00416076
2.17855e-07
3.34477e-09
0.00339429
0.117001
0.030654
9.84543e-08
1.59048e-07
1.2755e-07
1.49233e-07
0.000585739
8.39709e-08
0.000559214
9.99416e-05
0.130299
7.76743e-09
0.0383183
1.06213e-07
0.000797289
1.37171e-07
1.34664e-08
1.53207e-07
0.123498
0.0661307
1.72421e-07
0.000583649
5.7337e-07
0.000450345
0.0494043
7.26382e-08
7.66801e-07
0.00299771
0.00417508
3.7148e-05
0.00223037
8.57776e-08
0.0281714
0.000686252
0.00491744
1.33848e-06
6.1243e-07
0.00293213
0.0638148
1.75924e-06
0
0
4.36354e-07
7.38166e-06
1.17289e-06
0.00427772
0.0463313
0.0414249
1.31834e-09
0.00362394
0.000485816
0.000449369
0.106004
0
0.00232566
0
0.00337704
0.0445387
5.03982e-07
0
1.18928e-07
8.30777e-09
0.0393673
0.0368816
0.00120315
0
0
0.00235281
2.04888e-06
2.74046e-06
0.0625933
0.00448991
0.00391363
2.38246e-10
4.19792e-07
0.000985454
8.60347e-05
0.114174
0.0409056
0.114868
3.13504e-10
1.80988e-09
2.43853e-09
6.90735e-10
1.42615e-07
9.47586e-10
0.000329945
0.000337452
0.00668124
0.0899528
0.0116636
0.00557368
4.6232e-06
0
1.0023e-05
9.54759e-05
2.61526e-06
5.79114e-07
0.00561323
3.86725e-08
0.000972175
0.00141849
0.00705981
6.24649e-05
0.00120571
0.0571228
0
0
4.2871e-08
0.0367436
0.0416621
2.54199e-07
1.81713e-08
0.0365049
9.32016e-09
0.0348896
0.0652689
0.0359906
0.0372554
0
6.22487e-08
0.0213047
0.00224808
6.89107e-05
0.0083366
2.29331e-09
0
0.00448881
1.76277e-05
2.49153e-05
1.83513e-05
0.0309713
3.09863e-10
0.0300342
0.0369714
3.93005e-06