# vtk DataFile Version 2.0
Unstructured Grid by M++
ASCII
DATASET UNSTRUCTURED_GRID
POINTS 4072 float
  0.609375   0.843750 0
  0.562500   0.843750 0
  0.531250   0.843750 0
  0.875000   0.828125 0
  0.984375   0.828125 0
  0.953125   0.828125 0
  0.937500   0.828125 0
  0.843750   0.828125 0
  0.812500   0.828125 0
  0.781250   0.828125 0
  0.765625   0.828125 0
  0.734375   0.828125 0
  0.703125   0.828125 0
  0.671875   0.828125 0
  0.640625   0.828125 0
  0.609375   0.828125 0
  0.593750   0.828125 0
  0.562500   0.828125 0
  0.546875   0.828125 0
  0.531250   0.828125 0
  0.515625   0.828125 0
  0.968750   0.812500 0
  0.937500   0.812500 0
  0.921875   0.812500 0
  0.890625   0.812500 0
  0.859375   0.812500 0
  0.828125   0.812500 0
  0.796875   0.812500 0
  0.765625   0.812500 0
  0.750000   0.812500 0
  0.718750   0.812500 0
  0.687500   0.812500 0
  0.656250   0.812500 0
  0.625000   0.812500 0
  0.593750   0.812500 0
  0.578125   0.812500 0
  0.546875   0.812500 0
  0.531250   0.812500 0
  0.515625   0.812500 0
  0.984375   0.796875 0
  0.562500   0.015625 0
  0.953125   0.796875 0
  0.921875   0.796875 0
  0.906250   0.796875 0
  0.875000   0.796875 0
  0.843750   0.796875 0
  0.812500   0.796875 0
  0.781250   0.796875 0
  0.750000   0.796875 0
  0.734375   0.796875 0
  0.703125   0.796875 0
  0.671875   0.796875 0
  0.640625   0.796875 0
  0.609375   0.796875 0
  0.578125   0.796875 0
  0.562500   0.796875 0
  0.531250   0.796875 0
  0.515625   0.796875 0
  0.968750   0.781250 0
  0.546875   0.000000 0
  0.937500   0.781250 0
  0.906250   0.781250 0
  0.890625   0.781250 0
  0.859375   0.781250 0
  0.828125   0.781250 0
  0.796875   0.781250 0
  0.765625   0.781250 0
  0.734375   0.781250 0
  0.718750   0.781250 0
  0.687500   0.781250 0
  0.656250   0.781250 0
  0.625000   0.781250 0
  0.593750   0.781250 0
  0.562500   0.781250 0
  0.546875   0.781250 0
  0.515625   0.781250 0
  0.984375   0.765625 0
  0.953125   0.765625 0
  0.921875   0.765625 0
  0.890625   0.765625 0
  0.875000   0.765625 0
  0.843750   0.765625 0
  0.812500   0.765625 0
  0.781250   0.765625 0
  0.750000   0.765625 0
  0.718750   0.765625 0
  0.703125   0.765625 0
  0.671875   0.765625 0
  0.640625   0.765625 0
  0.609375   0.765625 0
  0.578125   0.765625 0
  0.593750   0.750000 0
  0.562500   0.765625 0
  0.546875   0.765625 0
  0.531250   0.765625 0
  0.562500   0.750000 0
  0.968750   0.750000 0
  0.937500   0.750000 0
  0.906250   0.750000 0
  0.875000   0.750000 0
  0.859375   0.750000 0
  0.828125   0.750000 0
  0.796875   0.750000 0
  0.765625   0.750000 0
  0.734375   0.750000 0
  0.703125   0.750000 0
  0.687500   0.750000 0
  0.671875   0.750000 0
  0.656250   0.750000 0
  0.625000   0.750000 0
  0.546875   0.750000 0
  0.531250   0.750000 0
  0.515625   0.750000 0
  0.562500   0.734375 0
  0.984375   0.734375 0
  0.953125   0.734375 0
  0.921875   0.734375 0
  0.890625   0.734375 0
  0.859375   0.734375 0
  0.843750   0.734375 0
  0.812500   0.734375 0
  0.781250   0.734375 0
  0.750000   0.734375 0
  0.718750   0.734375 0
  0.687500   0.734375 0
  0.671875   0.734375 0
  0.656250   0.734375 0
  0.640625   0.734375 0
  0.546875   0.734375 0
  0.531250   0.734375 0
  0.515625   0.734375 0
  0.562500   0.718750 0
  0.968750   0.718750 0
  0.937500   0.718750 0
  0.906250   0.718750 0
  0.875000   0.718750 0
  0.843750   0.718750 0
  0.796875   0.718750 0
  0.765625   0.718750 0
  0.734375   0.718750 0
  0.703125   0.718750 0
  0.687500   0.718750 0
  0.671875   0.718750 0
  0.656250   0.718750 0
  0.625000   0.718750 0
  0.546875   0.718750 0
  0.531250   0.718750 0
  0.515625   0.718750 0
  0.562500   0.703125 0
  0.953125   0.703125 0
  0.921875   0.703125 0
  0.890625   0.703125 0
  0.859375   0.703125 0
  0.828125   0.703125 0
  0.781250   0.703125 0
  0.750000   0.703125 0
  0.718750   0.703125 0
  0.687500   0.703125 0
  0.656250   0.703125 0
  0.546875   0.703125 0
  0.531250   0.703125 0
  0.515625   0.703125 0
  0.984375   0.687500 0
  0.937500   0.687500 0
  0.921875   0.687500 0
  0.906250   0.687500 0
  0.875000   0.687500 0
  0.843750   0.687500 0
  0.812500   0.687500 0
  0.765625   0.687500 0
  0.734375   0.687500 0
  0.703125   0.687500 0
  0.671875   0.687500 0
  0.640625   0.687500 0
  0.593750   0.687500 0
  0.562500   0.687500 0
  0.546875   0.687500 0
  0.531250   0.687500 0
  0.515625   0.687500 0
  0.968750   0.671875 0
  0.937500   0.671875 0
  0.921875   0.671875 0
  0.906250   0.671875 0
  0.890625   0.671875 0
  0.859375   0.671875 0
  0.828125   0.671875 0
  0.796875   0.671875 0
  0.765625   0.671875 0
  0.750000   0.671875 0
  0.718750   0.671875 0
  0.687500   0.671875 0
  0.656250   0.671875 0
  0.625000   0.671875 0
  0.593750   0.671875 0
  0.578125   0.671875 0
  0.546875   0.671875 0
  0.531250   0.671875 0
  0.515625   0.671875 0
  0.984375   0.656250 0
  0.953125   0.656250 0
  0.937500   0.656250 0
  0.921875   0.656250 0
  0.906250   0.656250 0
  0.875000   0.656250 0
  0.843750   0.656250 0
  0.812500   0.656250 0
  0.781250   0.656250 0
  0.750000   0.656250 0
  0.734375   0.656250 0
  0.703125   0.656250 0
  0.671875   0.656250 0
  0.640625   0.656250 0
  0.609375   0.656250 0
  0.578125   0.656250 0
  0.562500   0.656250 0
  0.531250   0.656250 0
  0.515625   0.656250 0
  0.968750   0.640625 0
  0.937500   0.640625 0
  0.906250   0.640625 0
  0.890625   0.640625 0
  0.859375   0.640625 0
  0.828125   0.640625 0
  0.796875   0.640625 0
  0.765625   0.640625 0
  0.734375   0.640625 0
  0.718750   0.640625 0
  0.687500   0.640625 0
  0.656250   0.640625 0
  0.625000   0.640625 0
  0.593750   0.640625 0
  0.562500   0.640625 0
  0.546875   0.640625 0
  0.515625   0.640625 0
  0.984375   0.625000 0
  0.953125   0.625000 0
  0.921875   0.625000 0
  0.890625   0.625000 0
  0.875000   0.625000 0
  0.843750   0.625000 0
  0.812500   0.625000 0
  0.781250   0.625000 0
  0.750000   0.625000 0
  0.734375   0.625000 0
  0.718750   0.625000 0
  0.703125   0.625000 0
  0.671875   0.625000 0
  0.640625   0.625000 0
  0.609375   0.625000 0
  0.578125   0.625000 0
  0.562500   0.625000 0
  0.546875   0.625000 0
  0.531250   0.625000 0
  0.968750   0.609375 0
  0.937500   0.609375 0
  0.906250   0.609375 0
  0.875000   0.609375 0
  0.859375   0.609375 0
  0.828125   0.609375 0
  0.796875   0.609375 0
  0.765625   0.609375 0
  0.750000   0.609375 0
  0.734375   0.609375 0
  0.718750   0.609375 0
  0.703125   0.609375 0
  0.687500   0.609375 0
  0.656250   0.609375 0
  0.625000   0.609375 0
  0.593750   0.609375 0
  0.562500   0.609375 0
  0.546875   0.609375 0
  0.531250   0.609375 0
  0.515625   0.609375 0
  0.984375   0.593750 0
  0.953125   0.593750 0
  0.921875   0.593750 0
  0.890625   0.593750 0
  0.859375   0.593750 0
  0.843750   0.593750 0
  0.812500   0.593750 0
  0.781250   0.593750 0
  0.750000   0.593750 0
  0.734375   0.593750 0
  0.718750   0.593750 0
  0.687500   0.593750 0
  0.671875   0.593750 0
  0.640625   0.593750 0
  0.609375   0.593750 0
  0.578125   0.593750 0
  0.562500   0.593750 0
  0.546875   0.593750 0
  0.531250   0.593750 0
  0.515625   0.593750 0
  0.968750   0.578125 0
  0.937500   0.578125 0
  0.906250   0.578125 0
  0.875000   0.578125 0
  0.890625   0.562500 0
  0.843750   0.578125 0
  0.828125   0.578125 0
  0.796875   0.578125 0
  0.765625   0.578125 0
  0.734375   0.578125 0
  0.703125   0.578125 0
  0.671875   0.578125 0
  0.656250   0.578125 0
  0.656250   0.562500 0
  0.625000   0.578125 0
  0.640625   0.562500 0
  0.593750   0.578125 0
  0.562500   0.578125 0
  0.546875   0.578125 0
  0.531250   0.578125 0
  0.515625   0.578125 0
  0.859375   0.562500 0
  0.828125   0.562500 0
  0.781250   0.562500 0
  0.750000   0.562500 0
  0.718750   0.562500 0
  0.687500   0.562500 0
  0.609375   0.562500 0
  0.578125   0.562500 0
  0.562500   0.562500 0
  0.546875   0.562500 0
  0.531250   0.562500 0
  0.515625   0.562500 0
  1.000000   0.812500 0
  0.578125   0.031250 0
  0.875000   0.546875 0
  0.625000   0.546875 0
  0.218750   0.000000 0
  0.640625   0.781250 0
  0.828125   0.093750 0
  0.031250   0.531250 0
  0.296875   0.328125 0
  0.296875   0.312500 0
  0.281250   0.312500 0
  0.765625   0.312500 0
  0.031250   0.859375 0
  0.093750   0.265625 0
  0.109375   0.250000 0
  0.187500   0.671875 0
  0.421875   0.640625 0
  0.031250   0.062500 0
  0.140625   0.125000 0
  0.562500   0.906250 0
  0.125000   0.437500 0
  0.203125   0.937500 0
  0.125000   0.421875 0
  0.140625   0.406250 0
  0.093750   0.437500 0
  0.109375   0.421875 0
  0.093750   0.421875 0
  0.109375   0.406250 0
  0.328125   0.125000 0
  0.750000   0.906250 0
  0.328125   0.109375 0
  0.750000   0.890625 0
  0.312500   0.125000 0
  0.734375   0.906250 0
  0.281250   0.343750 0
  0.265625   0.359375 0
  0.500000   0.796875 0
  0.078125   0.015625 0
  0.062500   0.015625 0
  0.484375   0.796875 0
  0.484375   0.781250 0
  0.062500   0.000000 0
  0.015625   0.250000 0
  0.062500   0.046875 0
  0.484375   0.828125 0
  0.484375   0.812500 0
  0.062500   0.031250 0
  0.281250   0.671875 0
  0.062500   0.234375 0
  0.328125   0.765625 0
  0.312500   0.750000 0
  0.015625   0.671875 0
  0.781250   0.187500 0
  0.015625   0.265625 0
  0.453125   0.250000 0
  0.453125   0.234375 0
  0.031250   0.265625 0
  0.046875   0.250000 0
  0.093750   0.015625 0
  0.265625   0.656250 0
  0.734375   0.281250 0
  0.156250   0.015625 0
  0.062500   0.265625 0
  0.046875   0.281250 0
  0.031250   0.281250 0
  0.343750   0.781250 0
  0.328125   0.781250 0
  0.265625   0.687500 0
  0.265625   0.703125 0
  0.156250   0.109375 0
  0.578125   0.890625 0
  0.484375   0.984375 0
  0.062500   0.203125 0
  0.328125   0.718750 0
  0.343750   0.734375 0
  0.343750   0.750000 0
  0.453125   0.500000 0
  0.437500   0.500000 0
  0.234375   0.093750 0
  0.171875   0.375000 0
  0.437500   0.531250 0
  0.468750   0.546875 0
  0.453125   0.546875 0
  0.187500   0.015625 0
  0.187500   0.000000 0
  0.609375   0.781250 0
[...]
CELL_DATA 7648
SCALARS scalar_value float 1
LOOKUP_TABLE default
0.00033215
0.000363263
0.000431639
0.000322476
0.0514768
0.0543009
0.0593141
0.053854
0.000345352
0.000412538
0.000443944
0.0230315
0.0250921
0.019667
6.19687e-05
5.31882e-05
5.66058e-05
4.18334e-05
1.37267e-07
1.32905e-07
1.63235e-07
1.13157e-07
7.33566e-08
1.15025e-08
1.2692e-08
1.85454e-08
1.00106e-08
0.00123087
0.00133797
2.29645e-09
2.90743e-09
3.90596e-09
2.33276e-09
6.52305e-09
8.24732e-09
1.07561e-08
7.02868e-09
2.58616e-09
3.47259e-09
4.61979e-09
5.8311e-10
1.30242e-09
0.000563287
0.000791534
0.000817125
0.00926303
0.0108394
0.0127357
1.32344e-08
0.0136878
0.0442268
1.67534e-07
1.71689e-08
2.2985e-08
0.000479483
1.68464e-08
0.000637228
0.000371136
4.1792e-09
6.14229e-09
9.01461e-09
5.54079e-08
4.15705e-08
0.000840832
0.000684706
0
0
1.25921e-08
1.644e-05
0
6.02411e-06
0
5.04636e-05
9.6751e-05
0.000835966
0
0.000791027
0
0.000823368
0.000192493
0.000263615
0
0
0
0.0203062
9.03144e-09
3.76385e-06
3.39652e-06
0.00140708
0
4.17629e-10
0
2.21201e-07
3.10929e-07
0
7.99072e-09
0.00124672
1.31229e-08
0.0015896
0.0019952
0.000137568
5.2675e-08
0.000154741
0.000287689
1.1722e-07
5.31653e-06
4.75887e-05
0.0183484
0.0179487
2.11753e-10
6.22225e-09
4.78833e-05
4.77451e-05
0
3.72118e-07
0
4.89706e-07
2.62999e-07
9.5558e-09
0.0462087
0.0488554
0
0
7.46804e-07
0
0
0
0.0047695
0.00596431
0.00397281
0
0.00281577
0
0.0119078
1.26438e-05
0.0116394
0.00104994
2.93947e-08
5.83983e-09
0.00833522
0.001061
0.00948352
0.0103768
2.51897e-09
0.0102525
0.010499
0.0506294
1.86756e-07
0.0460526
0.000916782
0.000875018
2.31329e-08
3.04339e-08
3.91164e-08
0.010532
0.00842123
0.0288137
3.77225e-09
0.0170395
2.22236e-08
0
1.48999e-07
1.74381e-07
3.60415e-05
0.00990526
0.012012
2.93715e-09
0.00861995
4.58391e-08
0.0952651
0
0.0101193
0.0130688
0.00461093
4.01476e-05
6.53746e-07
0.057973
0.00485067
1.27621e-05
0.00573679
0.00704989
1.79285e-05
0.0232203
0.00105991
0
2.8245e-07
0.0465959
0
0
0.00162535
0
0.00192953
0.00245887
0
9.81921e-10
0.00281938
0.00335695
0.00283146
0
0
0
0.022368
3.51315e-07
0.0526872
0.0502806
3.26428e-07
2.98167e-08
0.0132254
0.0152538
0.0121257
2.21112e-09
3.49399e-09
5.19902e-09
3.14051e-09
0.00727055
5.70894e-07
0
0.114448
0
0.000372636
0.000821966
0.00827772
0.00992568
1.07248e-09
0.00805645
2.38902e-10
0.000111948
0.000307714
0.00647572
0.00534897
0.0607043
0.0517868
0.0032431
5.6386e-06
0.0671318
0.0711895
0.0748049
0.0723953
0.00228943
0
0.00196127
0.00841445
4.97581e-06
0.000952169
0.00109331
0.00649885
1.856e-05
0.00576762
0.00689847
1.4047e-10
0.00551603
0.00050008
2.92722e-08
3.97573e-08
3.87412e-08
0.000819599
2.33398e-06
0.00189851
0.00226907
1.06783e-07
1.33192e-07
1.32369e-07
0.0042708
2.97589e-09
8.66392e-10
0.00570129
2.79967e-09
0.0106323
2.01668e-09
0.0039166
0.0250785
1.21397e-07
0
0.0413439
0.00752032
4.56501e-10
0.106896
0.00200583
3.07466e-06
3.81619e-06
4.7555e-10
0.000580687
0.00131481
0.0126653
7.56614e-06
0.00497829
0.013136
5.78698e-10
2.80348e-10
0.00312621
4.71352e-10
0.0141285
0.00017654
0
3.96981e-06
4.02304e-06
0
4.99945e-06
0
0.000657762
2.65388e-07
1.11929e-05
0.0259604
0.00105796
7.33786e-08
5.96517e-08
5.35212e-08
4.38158e-07
0.00210936
1.33031e-06
9.56294e-07
0.00360944
0.017583
0
0.00298706
0.000122358
4.82263e-07
0.00267578
3.74517e-07
7.26042e-05
2.66134e-07
4.98104e-08
0.000430979
0.00141956
0.00279475
2.64059e-06
5.33598e-07
0.00144231
0.00203202
1.19436e-06
0.00183376
2.1013e-08
0.0101171
0.000265543
0.0296557
0.000242608
0.0289381
0.0355049
0.0314125
1.4971e-07
0.000715594
0.0463511
0.0425191
0
0.0361646
0.000117431
0.000166639
0.0191238
1.7482e-10
0
0
0
1.45494e-07
0.00404376
0
0.00334307
2.24864e-10
0.0482861
0.0433632
0.0427274
3.56577e-06
2.82623e-06
2.98527e-06
2.28091e-05
0.00205498
0.00269839
0.00230956
0
0
0
0.00204902
1.7719e-05
2.12695e-10
0.0034131
1.28322e-10
0.00530349
0.00559864
0
9.64565e-05
5.94996e-08
2.89868e-06
0.00423953
5.04237e-06
0.000124923
0.00770272
3.80782e-05
0.00803732
1.07284e-05
9.24416e-10
0.0146393
0.0130247
3.94775e-05
0.0221142
0.020284
0.0189221
1.74088e-08
1.70792e-08
0.0383368
0.00307578
5.15702e-05
4.37228e-09
0.0196596
0.00191748
6.30543e-05
0.00249145
3.19905e-05
4.70916e-10
0.00173287
0.0261093
1.29649e-08
0.012486
0.00139009
0.00085428
0.00641295
1.20795e-05
0.000240523
0
0.000235661
1.25624e-10
1.20906e-05
0.00136943
1.99152e-05
0.0139487
5.01909e-08
1.1663e-07
1.03315e-07
0.0497673
1.05764e-07
0.0017681
5.71649e-09
0.00152397
3.75617e-07
4.34481e-09
0
4.81281e-09
2.78421e-09
1.02142e-09
0
0.0348068
0.00115115
8.89063e-07
0.000834465
7.98648e-08
8.44411e-08
0.00324712
1.13597e-07
0.00327306
0.00275024
0.000839874
0.00126263
0.0564509
4.69197e-07
4.06159e-09
3.3607e-07
0.000973236
6.0886e-09
7.85073e-09
6.68361e-09
0.000666782
0.00306973
0.0286119
2.59066e-07
0.000507532
0.000436245
0
3.08852e-09
2.53868e-09
0
0
0
0.00459922
0
3.98966e-06
0
0
3.85169e-06
5.94581e-08
0.000242776
0
0.00129098
0
2.13181e-06
0
0
0.00229382
0.00298162
0.00379938
0.00209026
5.98016e-07
9.59762e-07
0
5.93975e-07
0
3.07889e-06
0.000657315
0
3.58288e-07
0.0408797
0.000147332
3.84432e-09
2.87063e-09
0.00259446
4.15613e-05
4.10861e-09
3.04807e-09
0.0137905
9.29702e-09
7.23835e-09
6.87035e-09
5.42558e-09
0.0411276
0.000918509
8.04306e-09
0
0.00121168
1.62763e-09
0.00456529
6.97404e-09
1.58226e-09
0.00531235
5.56182e-09
0.0113082
3.74475e-09
6.27482e-09
0.00131097
1.9635e-05
0.101502
0.00689078
1.98395e-05
1.40835e-05
0.00547481
1.18555e-09
0.0243339
1.64308e-09
3.93727e-05
0.0474137
6.58608e-05
0.0390315
3.08966e-05
9.80479e-05
4.4095e-05
0.000115556
3.09768e-09
3.3172e-09
0.0272665
1.33635e-05
0.00435468
1.47431e-05
0.00114522
1.85633e-05
1.35759e-05
0.0926033
2.15016e-05
1.83662e-05
0.000118116
0.000124158
0.000166167
0.0155596
1.04233e-08
5.07173e-09
0.014316
9.54975e-10
3.25172e-10
1.62546e-09
0.000338609
1.30057e-05
1.33729e-07
0.000388314
0.000338394
0.000537613
6.45486e-08
0.00160322
1.55449e-05
0.00562095
1.59367e-09
8.9195e-06
0.0314064
7.49178e-10
0.00391902
1.77424e-07
7.57801e-05
7.31756e-05
4.07228e-10
6.55877e-10
0.00165113
2.56328e-10
0.000147082
0.00897618
6.65848e-10
0.019732
0.0231459
0
3.85715e-09
3.92343e-09
0.0809926
8.37751e-09
2.31062e-05
0.00293058
2.31555e-09
0.00477814
3.39734e-09
2.19623e-09
1.4979e-09
1.42194e-09
0.00289935
0.00785684
1.74602e-09
0.0249731
1.5654e-05
0.0728805
0.0725216
0.074752
0.00413371
0.00364388
0.00393548
1.10153e-07
0.0115201
9.18217e-08
4.8425e-09
1.26478e-09
0.00385925
1.89695e-09
2.41027e-09
2.5652e-09
0.0123506
3.26081e-09
2.16384e-09
8.7953e-10
1.26935e-09
1.31606e-09
2.07144e-09
0.00230472
6.95043e-10
8.71725e-10
0.0815534
2.64286e-06
0.0891873
0.00306181
2.81652e-05
2.43132e-05
0.0208835
0.0155191
8.32334e-05
0.0594942
0.00361189
0.00736241
0.0155872
0
0
0
3.69339e-06
0.00506217
0.00584217
2.48459e-10
0
7.00931e-06
3.94195e-10
5.45109e-06
1.8887e-05
3.60867e-06
0.000585348
0.000967286
2.7468e-06
3.39057e-09
4.55435e-08
0.0303526
3.54902e-09
5.17277e-08
0
0
0
1.71872e-08
0.0534338
5.04016e-09
0.0487166
3.60041e-07
0.000149805
0.000161766
0.000213278
0.0150254
0.015899
0.0163633
0.000548133
0
5.76751e-05
0.00959625
0.0193494
0.00899365
6.87454e-10
0.00488172
0.0104094
0.0116193
1.82909e-09
9.05143e-05
0.0108859
0.0138478
0.000140358
6.9283e-08
0.0151915
0.0040722
0.00330024
0.00297663
0.00150148
3.13744e-06
0.000970413
1.38994e-06
0.000704128
0.000887457
0.0320931
0.0359575
0.0609869
0.0653789
0.0682765
0.0020296
0.00134877
0.0485509
0.0529805
3.72651e-07
2.3039e-06
0.0518481
0.0574158
0.000818689
0.000888164
0.00074322
0.0380285
0.0419603
0.00487045
0.046256
0.000419053
0.000493405
0.000606933
0.0286563
0.0319605
0.0356765
3.4478e-08
2.1042e-08
6.79462e-05
0.0236407
0.0228199
0.0266576
0.00227763
0.025309
0.0307392
0.0294242
1.07698e-08
0.000209947
3.37195e-06
0.000276717
0.000468953
5.77093e-08
0.016786
0.0194771
0.0222959
7.43761e-10
1.80883e-09
1.02028e-09
1.17587e-09
0.000258923
0.000185989
1.13163e-10
0.00350785
1.06639e-06
0
1.24996e-10
1.09328e-05
3.5521e-10
0.00635473
0.031386
1.56568e-05
7.0904e-06
7.75343e-06
6.03311e-06
1.07901e-05
9.41508e-06
8.03189e-06
1.20484e-05
3.18558e-09
1.69441e-05
1.61574e-05
0.000507339
0.000667369
2.09423e-06
3.78957e-06
0
0.00398272
0
0.000333717
0.000417958
0.00740222
6.77019e-06
6.0664e-06
5.39286e-10
6.19456e-07
7.06963e-08
0.00311073
1.3361e-06
3.77592e-08
0.00108009
0
0.00168414
0
2.40149e-10
0.00133553
2.734e-07
0.000349561
1.28553e-10
0.00380117
0.000559889
9.42802e-07
3.77879e-07
0.000412875
0
4.80252e-06
0.000648795
4.23281e-06
4.71948e-06
0.000562364
5.25298e-06
0.00703465
0.00759051
9.78285e-10
0.0009704
0.0026862
7.3753e-10
3.93792e-10
0.0675073
0.00496438
0.00284584
0
0.00253512
0
2.54784e-06
0.00490952
0.00512971
0.00415605
4.59785e-06
4.13818e-06
0.0190334
0.00145462
0.00117768
1.45358e-08
0.00111522
0.00135951
0
4.20738e-07
0.0549549
0.00112186
7.15178e-09
6.3728e-08
0.0154086
0.00508346
3.72501e-05
0.00714697
0.00791729
7.59066e-05
0.00791882
8.26841e-10
0.00111287
8.66548e-06
9.36313e-05
0.00969834
1.68143e-08
0.0110432
0.00803391
2.60361e-09
0
0.00927883
2.96591e-08
0.00704892
9.44641e-08
2.35089e-07
0.000627116
2.12107e-07
0
0
0
2.32687e-07
1.05585e-07
0
0.00246148
0
0.00107817
7.30587e-08
8.40742e-08
0
4.70532e-07
0.000967874
0.00146946
1.02708e-06
0
0
0.000369981
0.000447036
0.000343521
0.0309033
0.000410614
0
0
0.000366283
0.000488399
3.5981e-06
0.000301421
0.00106526
0
0
3.87927e-08
0.00160671
4.22777e-08
2.563e-08
0.000523673
4.88346e-07
2.04797e-07
0.00037267
0.01944
0.0241914
0
2.52181e-08
0.0229802
3.21784e-08
3.13622e-08
5.56149e-08
0.056583
8.15398e-07
3.32146e-08
1.45088e-08
1.20099e-06
0.00244083
4.89354e-08
0.00287074
0.00198681
0.039241
0
0.000860319
0.00103679
0.00133053
0.00216906
3.23337e-06
0.00144914
1.64538e-06
7.78853e-07
0.000954382
0.000691582
6.58918e-08
0.000580271
2.9699e-07
0.000647553
0.0320149
0
5.06782e-05
0
3.48003e-05
1.92699e-08
3.68883e-08
7.90099e-05
8.37332e-07
5.79039e-05
0.00160117
0
0
5.15061e-09
0.0326181
0.0387067
0
0.00289876
0
0
0
0.000295938
1.57299e-07
0.0046816
0
0.0220744
8.22232e-08
0
0.00065652
0.00223601
0.0945711
0.0334832
0.0925475
0.10021
0.00810991
0.0908471
0.0081987
3.74408e-07
0.034691
0.006513
1.58528e-07
0.0307249
0.0308851
7.57479e-09
0.000524533
3.00683e-07
0
0.000432278
0.00461505
1.05521e-05
5.6025e-06
0.00361564
0.0840934
3.91806e-05
0
0.00281632
2.88423e-07
0.0280538
0.0775896
0.00632999
0.085204
0.00932511
2.97107e-05
0.000396715
0.0827543
0.00738411
0.000267178
0.00529245
1.02282e-05
1.68865e-05
0.00652561
1.18169e-07
0.00113749
6.86964e-06
0.00039374
2.78317e-07
0.0445366
0.000547985
1.59021e-06
6.66286e-07
0.00044278
0.00605649
0
0.0514505
3.34608e-10
0
2.94943e-10
0.00033406
1.11609e-10
0.000617562
3.32616e-06
0.000331933
0.0613586
1.55636e-06
0.0034694
0.000658583
5.91453e-07
1.68324e-09
1.20184e-10
4.16363e-09
0.000169902
0
0
0
5.88602e-08
0.0596064
4.92259e-06
0.0946707
0.0201148
0.0339525
8.17342e-07
9.89186e-08
0.0177323
0.00548884
1.18296e-07
0.0619929
0.0422799
9.29493e-07
4.46614e-08
1.37832e-10
5.12192e-08
6.70665e-07
0.000409691
0.0125678
0.0555915
0.0175229
3.05745e-08
2.94302e-08
3.57752e-08
3.5333e-08
0.00403481
0.0574011
0.00188601
0
0.0046101
0.0690943
0
2.67048e-05
0.0341033
8.7582e-09
0.0670065
0.00487124
0.00312268
0
1.25431e-08
1.27007e-05
0.0039969
0
0.00391228
9.81761e-10
0.0231284
5.21252e-06
0.000184819
0.00393666
0
6.86203e-10
1.70179e-08
3.99586e-05
0.00430568
7.26212e-06
9.21659e-10
0.00366468
0.00729132
5.99247e-09
1.37735e-06
0.00281043
0.00367888
3.19397e-06
1.15146e-10
5.7515e-05
0.00283483
0
2.3126e-05
0
2.27097e-08
2.78869e-08
0
1.48597e-07
0
0.000124575
0.00439483
0.00276806
0
0.000916429
5.3173e-09
3.86161e-05
0.00189853
4.536e-07
1.77878e-08
0.0593128
1.41272e-05
1.71481e-09
0.00110126
1.52753e-10
0.0207822
1.83439e-05
0.000102955
0.0108176
5.05378e-08
0.00323701
5.15313e-08
0.0089384
6.26248e-05
7.98292e-09
1.38377e-09
0.0228917
0
7.34812e-09
4.10548e-10
0.0176495
0
0.0220635
1.00183e-07
0.000249824
0.000437789
2.22252e-07
6.94461e-08
6.03118e-10
1.66581e-08
0.00120577
4.50029e-07
0.033153
0.0213104
2.31047e-06
0.000235166
1.51118e-07
0.000340224
0.00045763
0.0148503
0.00011694
0.000280042
1.18072e-07
0.0103895
0.000567452
8.35334e-05
0.0160808
0.000119521
0
0.00083076
0.0184956
0
0.000174711
4.61757e-09
0.0354096
0.00300299
0
1.02613e-07
0.0168
0.0194379
7.43979e-08
1.61686e-07
4.06908e-05
0.000177994
0
0.0120784
5.41982e-05
0.000219851
6.63082e-08
3.40663e-07
0
2.26078e-06
0.0028408
0
7.91375e-05
0
0.0359259
0.00243808
1.3131e-09
0.000164585
0
0.00242505
0.00291217
0.0182293
0.00176653
0.00591626
0
8.19433e-08
1.46676e-05
7.2445e-06
0
0
6.25817e-10
5.32251e-09
8.75311e-08
0.0194128
0
3.29296e-09
0.013063
0.00984511
1.93926e-09
0.0216476
0.000204479
0.0167381
0.0164064
0.00297095
0.0202879
0.00278343
0.119632
0.00010065
0.0118664
4.97646e-09
0.0923904
6.29003e-07
2.01505e-09
0.00540606
2.03204e-06
3.15712e-06
0.0044355
2.93221e-08
0.003133
1.14458e-06
1.94311e-06
1.32009e-10
1.25946e-08
0.00931966
0.0363188
4.56575e-07
0.00240185
0.00935938
0.000215792
0
0.04378
8.68137e-05
0
0.00446661
0.00303355
0.00776155
0.000851686
0.00170755
0.000892003
5.20474e-09
0.00766525
1.34481e-08
5.66821e-09
2.58873e-05
0.000442428
0
0.116946
6.91619e-06
0.00024407
3.60267e-05
0
0.00477954
0.000699976
0
0
1.11548e-05
0
1.4998e-09
4.50041e-10
0.013507
2.18763e-05
0.000497414
0
0
0.000297008
0
0
0.00519487
0
0.00244838
0
0
8.29623e-08
0.000232528
0.000388544
1.86213e-07
0
0
0.00210964
0.00223687
6.80665e-06
0.00374221
0.0055992
1.02743e-05
0
7.40764e-10
0.000467783
0.000207096
0
0
0
0.000657561
4.50921e-06
3.93817e-07
2.02916e-06
0
9.15249e-10
0
1.01474e-10
0
0.000200931
2.74209e-06
0
3.71523e-06
0.00413987
8.68427e-06
7.75368e-06
0.0338246
0.0199922
7.51735e-06
0
5.49289e-05
0
0.0206334
0
1.74252e-06
0.00369155
4.19086e-06
5.09583e-09
0.012786
2.17972e-08
0
0.00213658
5.71629e-06
0.0356837
0.000143763
0.030043
0.0169518
8.92627e-06
8.90671e-08
2.32801e-07
0.0251888
0.0260427
0.00012121
3.73359e-08
0.000603739
3.57051e-07
0
0
9.39436e-09
1.57929e-05
0.00446794
0.00488086
2.98886e-05
0.000951001
1.26681e-07
0
0.0681589
0.0140452
0.00347526
0
0.0153863
1.69469e-05
0.0957982
4.61938e-09
0.00390555
0.000485256
0.0504586
0.00226845
0
0.00157595
1.65253e-07
0.047691
0.00203946
0.0122611
0.00157164
4.21002e-09
2.32814e-09
0
8.52668e-07
0.00134331
2.49727e-05
2.48314e-06
1.6633e-09
0
0.00436483
2.48037e-08
0.0127551
0.0276714
0.0246162
0.0250876
0.0427508
1.90636e-06
0
0.0878257
0.0399842
0
2.29372e-07
0.00162933
0.00247958
5.11147e-07
4.21611e-10
0.0469137
2.38593e-05
0.0032633
4.39334e-09
0.0256917
7.30419e-10
1.09859e-09
2.00486e-06
0.0489498
0
0.042983
0.00251179
8.34137e-06
0.0736386
0.000707243
0.0017373
0
0.0644358
0.017288
0.0152601
0.00558466
0.0293733
0.00383464
0.000240751
0.044847
0.0312889
2.26732e-10
0.0795654
3.36683e-09
1.03329e-05
0.0457892
0.0294282
1.34206e-07
0.0527055
0.0888577
6.80538e-06
0.00419848
0.00429771
9.42221e-06
0.054063
0.0104472
6.07362e-05
0.000364568
0.014
0.0994213
0
0.0173389
7.74692e-09
1.71255e-06
4.14494e-10
0.00271652
1.38819e-06
0.0155366
1.22676e-08
0.00666839
0
0.00125963
0.0157601
0.000239212
0.000145958
0.0138504
0.00013564
0.010632
0.00391845
0
0.0506547
0.0034445
0.00510189
1.12979e-05
0.00255434
0.00415781
2.03759e-10
0.0834719
0.00207124
4.15001e-07
1.54171e-05
0.00864339
0
0.00285654
1.87981e-07
0.00489538
0.0226908
1.25012e-05
0.000221806
1.98728e-07
5.27513e-07
0.00397912
0.00494622
0.118719
4.23879e-09
0.00646433
0.0047696
0.0144752
0.0990035
0.000101627
0.0691816
3.4011e-07
1.20364e-07
0.00284317
2.92841e-06
0.0023916
6.0653e-07
0.0461322
3.72498e-10
1.65291e-05
0.0533827
0.00636846
0
0.00266223
0.00116607
0.0119812
0.0215509
0
0.000335258
2.16433e-06
0.00620169
2.43139e-09
0.00610281
1.20342e-05
2.0517e-08
5.9164e-05
0.000127651
4.52685e-08
0.087999
2.0724e-08
1.28162e-05
0.005728
1.76268e-09
0.00652363
0.092648
0.00128694
2.15616e-09
1.58207e-05
0.10109
2.85092e-08
0.0183014
2.27451e-08
2.88122e-08
0.00643806
0.0247485
1.72438e-05
0.00209898
0
0
6.50275e-07
5.5248e-05
0.00296478
0
0.00177994
0.00260181
1.63741e-06
1.60394e-10
1.04548e-07
1.53873e-06
2.1357e-07
0.029344
5.79107e-08
0.0967248
2.24109e-08
1.7508e-08
0
9.26212e-08
0
0
0.000455243
0.0208371
3.85901e-07
0
0.0493775
1.96638e-06
1.45177e-07
1.74875e-06
0
0.0077238
0.033944
5.2483e-06
0.0024492
0.0678791
4.85245e-07
7.78593e-07
0
0.000512891
3.60691e-08
1.63721e-08
0.000174834
0.0225042
5.61546e-07
0.00362648
2.76275e-07
0.00155866
0.01018
0.0713907
0
0.0009112
0.0926316
0.00726004
0.0043685
7.86317e-06
0.103121
0.0399724
0.00375092
0.000380954
0.0405343
7.49327e-07
1.49822e-06
0.000349149
3.08024e-05
0.003543
2.41621e-09
7.42842e-05
0.00490829
0.000142769
0.00674045
3.84942e-09
1.79659e-09
0.000199452
0.0119302
8.0451e-05
2.91208e-05
0.00870093
0.00335237
0.109973
0.0201366
1.42296e-05
0.00277969
0.0692157
0.0641489
0.00146897
0
0.00913557
8.76821e-06
0.00482742
0
0.00208903
1.47894e-07
0.058757
7.09892e-07
0.0020097
3.66919e-07
0
0.00143543
6.88334e-08
0.00108212
0.0597445
5.70972e-08
1.3846e-05
2.09323e-07
0.0223289
2.0898e-06
1.23453e-09
2.58712e-08
0.00508228
0.0196933
0.0220633
0.0270452
0.00267042
4.58645e-07
0.0418168
0.0187494
0.106395
0.0183245
0.0113487
3.00144e-09
2.58999e-05
0.00322719
0.0155173
0.000193813
0.00954841
0.0195215
0.0917592
0
2.52619e-09
0.00658942
1.44966e-05
8.97591e-06
0.00462005
0.00812055
8.05268e-08
0.000271736
0.0962609
0.100293
0.013224
0.0154101
6.44933e-09
0.103543
2.46253e-07
0.0163849
7.25297e-09
0.102858
1.30938e-09
0.00679728
7.03978e-10
0.0620015
0.00169732
9.50249e-06
6.84771e-07
0.000800404
0.000897947
6.47619e-06
0.000665126
6.46349e-10
0.0186608
4.58773e-06
0
3.18916e-10
0.0560144
0.000390486
1.28557e-10
0.0109417
1.76614e-08
0
0
0.00372412
1.08957e-09
0
0.000479549
0.000939282
1.09905e-07
0.000521303
3.05455e-07
0
2.35459e-06
1.22457e-07
1.90477e-07
0.00118065
3.96547e-08
0.0158533
4.8462e-08
0
0
0.00151069
9.75239e-06
5.178e-08
1.32308e-08
0.0102252
0
0.00337007
0
0.00633122
0.00369622
1.42546e-08
0.00559956
0.000174969
0
0
0.000676758
0.106589
1.24208e-08
0.0036431
2.73453e-06
0
0.000477599
0.0188677
0.000491039
0.0209365
0.000523552
0.0074029
2.98261e-05
0.0177097
0.000413488
9.31498e-10
1.02076e-08
2.40066e-07
0.0418943
1.34629e-06
1.98634e-07
0.0364651
8.02011e-09
0.0387017
0.00921643
0.0651939
0.000135643
0
6.21707e-10
0.00330825
0.00327305
0
5.35097e-06
6.61424e-06
0.0228948
0.0289858
0.000685971
0.00145002
0.00272129
5.52847e-06
4.89089e-05
0
0
0.0247132
0
0.00159964
0.00332213
2.25639e-08
3.4353e-10
0.00162286
0.0551871
0.011799
1.35764e-08
2.21019e-08
1.75533e-08
2.01946e-08
9.96604e-05
1.17722e-08
9.70724e-05
1.49154e-05
0.0745612
9.5071e-10
0.0169525
1.5032e-08
0.000138852
1.93883e-08
1.65973e-09
2.22028e-08
0.0996218
0.0222655
2.46183e-08
8.70176e-05
6.76042e-08
6.51667e-05
0.0231843
1.04345e-08
9.15189e-08
0.000596937
0.000740359
4.67527e-06
0.000469286
9.41287e-09
0.00727403
0.000244975
0.001636
2.01404e-07
9.18798e-08
0.000966368
0.0219691
2.13934e-07
0
0
6.36417e-08
1.07614e-06
1.65463e-07
0.0012125
0.021853
0.0193889
1.34912e-10
0.00247007
0.000157568
0.000137053
0.0459662
0
0.000404498
0
0.00193276
0.0178549
6.63514e-08
0
1.26494e-08
8.56106e-10
0.020408
0.0187579
0.000222331
0
0
0.000448971
2.54832e-07
2.932e-07
0.0284957
0.00323598
0.000689266
0
4.32877e-08
0.000320967
2.10606e-05
0.0843331
0.0380006
0.0882127
0
1.83502e-10
2.46696e-10
0
1.64626e-08
0
0.000112245
0.000114
0.00409563
0.0779003
0.00366491
0.00224552
8.01457e-07
0
1.32671e-06
1.28469e-05
2.77246e-07
5.99277e-08
0.00793297
4.17699e-09
0.000157421
0.000236549
0.00988552
8.0998e-06
0.000196854
0.0273187
0
0
6.11017e-09
0.016818
0.0184459
3.56408e-08
2.40277e-09
0.0158726
9.47653e-10
0.0145555
0.0379728
0.017613
0.0177548
0
6.73721e-09
0.00507878
0.00071375
8.87497e-06
0.00213781
3.0336e-10
0
0.00300953
2.22895e-06
3.21607e-06
2.33933e-06
0.0205281
0
0.0203511
0.0245533
4.21807e-07
0
0
2.37788e-05
6.67886e-09
0
0.036558
0.00317751
0.000917318
0.00124074