# vtk DataFile Version 2.0
Unstructured Grid by M++
ASCII
DATASET UNSTRUCTURED_GRID
POINTS 4072 float
  0.609375   0.843750 0
  0.562500   0.843750 0
  0.531250   0.843750 0
  0.875000   0.828125 0
  0.984375   0.828125 0
  0.953125   0.828125 0
  0.937500   0.828125 0
  0.843750   0.828125 0
  0.812500   0.828125 0
  0.781250   0.828125 0
  0.765625   0.828125 0
  0.734375   0.828125 0
  0.703125   0.828125 0
  0.671875   0.828125 0
  0.640625   0.828125 0
  0.609375   0.828125 0
  0.593750   0.828125 0
  0.562500   0.828125 0
  0.546875   0.828125 0
  0.531250   0.828125 0
  0.515625   0.828125 0
  0.968750   0.812500 0
  0.937500   0.812500 0
  0.921875   0.812500 0
  0.890625   0.812500 0
  0.859375   0.812500 0
  0.828125   0.812500 0
  0.796875   0.812500 0
  0.765625   0.812500 0
  0.750000   0.812500 0
  0.718750   0.812500 0
  0.687500   0.812500 0
  0.656250   0.812500 0
  0.625000   0.812500 0
  0.593750   0.812500 0
  0.578125   0.812500 0
  0.546875   0.812500 0
  0.531250   0.812500 0
  0.515625   0.812500 0
  0.984375   0.796875 0
  0.562500   0.015625 0
  0.953125   0.796875 0
  0.921875   0.796875 0
  0.906250   0.796875 0
  0.875000   0.796875 0
  0.843750   0.796875 0
  0.812500   0.796875 0
  0.781250   0.796875 0
  0.750000   0.796875 0
  0.734375   0.796875 0
  0.703125   0.796875 0
  0.671875   0.796875 0
  0.640625   0.796875 0
  0.609375   0.796875 0
  0.578125   0.796875 0
  0.562500   0.796875 0
  0.531250   0.796875 0
  0.515625   0.796875 0
  0.968750   0.781250 0
  0.546875   0.000000 0
  0.937500   0.781250 0
  0.906250   0.781250 0
  0.890625   0.781250 0
  0.859375   0.781250 0
  0.828125   0.781250 0
  0.796875   0.781250 0
  0.765625   0.781250 0
  0.734375   0.781250 0
  0.718750   0.781250 0
  0.687500   0.781250 0
  0.656250   0.781250 0
  0.625000   0.781250 0
  0.593750   0.781250 0
  0.562500   0.781250 0
  0.546875   0.781250 0
  0.515625   0.781250 0
  0.984375   0.765625 0
  0.953125   0.765625 0
  0.921875   0.765625 0
  0.890625   0.765625 0
  0.875000   0.765625 0
  0.843750   0.765625 0
  0.812500   0.765625 0
  0.781250   0.765625 0
  0.750000   0.765625 0
  0.718750   0.765625 0
  0.703125   0.765625 0
  0.671875   0.765625 0
  0.640625   0.765625 0
  0.609375   0.765625 0
  0.578125   0.765625 0
  0.593750   0.750000 0
  0.562500   0.765625 0
  0.546875   0.765625 0
  0.531250   0.765625 0
  0.562500   0.750000 0
  0.968750   0.750000 0
  0.937500   0.750000 0
  0.906250   0.750000 0
  0.875000   0.750000 0
  0.859375   0.750000 0
  0.828125   0.750000 0
  0.796875   0.750000 0
  0.765625   0.750000 0
  0.734375   0.750000 0
  0.703125   0.750000 0
  0.687500   0.750000 0
  0.671875   0.750000 0
  0.656250   0.750000 0
  0.625000   0.750000 0
  0.546875   0.750000 0
  0.531250   0.750000 0
  0.515625   0.750000 0
  0.562500   0.734375 0
  0.984375   0.734375 0
  0.953125   0.734375 0
  0.921875   0.734375 0
  0.890625   0.734375 0
  0.859375   0.734375 0
  0.843750   0.734375 0
  0.812500   0.734375 0
  0.781250   0.734375 0
  0.750000   0.734375 0
  0.718750   0.734375 0
  0.687500   0.734375 0
  0.671875   0.734375 0
  0.656250   0.734375 0
  0.640625   0.734375 0
  0.546875   0.734375 0
  0.531250   0.734375 0
  0.515625   0.734375 0
  0.562500   0.718750 0
  0.968750   0.718750 0
  0.937500   0.718750 0
  0.906250   0.718750 0
  0.875000   0.718750 0
  0.843750   0.718750 0
  0.796875   0.718750 0
  0.765625   0.718750 0
  0.734375   0.718750 0
  0.703125   0.718750 0
  0.687500   0.718750 0
  0.671875   0.718750 0
  0.656250   0.718750 0
  0.625000   0.718750 0
  0.546875   0.718750 0
  0.531250   0.718750 0
  0.515625   0.718750 0
  0.562500   0.703125 0
  0.953125   0.703125 0
  0.921875   0.703125 0
  0.890625   0.703125 0
  0.859375   0.703125 0
  0.828125   0.703125 0
  0.781250   0.703125 0
  0.750000   0.703125 0
  0.718750   0.703125 0
  0.687500   0.703125 0
  0.656250   0.703125 0
  0.546875   0.703125 0
  0.531250   0.703125 0
  0.515625   0.703125 0
  0.984375   0.687500 0
  0.937500   0.687500 0
  0.921875   0.687500 0
  0.906250   0.687500 0
  0.875000   0.687500 0
  0.843750   0.687500 0
  0.812500   0.687500 0
  0.765625   0.687500 0
  0.734375   0.687500 0
  0.703125   0.687500 0
  0.671875   0.687500 0
  0.640625   0.687500 0
  0.593750   0.687500 0
  0.562500   0.687500 0
  0.546875   0.687500 0
  0.531250   0.687500 0
  0.515625   0.687500 0
  0.968750   0.671875 0
  0.937500   0.671875 0
  0.921875   0.671875 0
  0.906250   0.671875 0
  0.890625   0.671875 0
  0.859375   0.671875 0
  0.828125   0.671875 0
  0.796875   0.671875 0
  0.765625   0.671875 0
  0.750000   0.671875 0
  0.718750   0.671875 0
  0.687500   0.671875 0
  0.656250   0.671875 0
  0.625000   0.671875 0
  0.593750   0.671875 0
  0.578125   0.671875 0
  0.546875   0.671875 0
  0.531250   0.671875 0
  0.515625   0.671875 0
  0.984375   0.656250 0
  0.953125   0.656250 0
  0.937500   0.656250 0
  0.921875   0.656250 0
  0.906250   0.656250 0
  0.875000   0.656250 0
  0.843750   0.656250 0
  0.812500   0.656250 0
  0.781250   0.656250 0
  0.750000   0.656250 0
  0.734375   0.656250 0
  0.703125   0.656250 0
  0.671875   0.656250 0
  0.640625   0.656250 0
  0.609375   0.656250 0
  0.578125   0.656250 0
  0.562500   0.656250 0
  0.531250   0.656250 0
  0.515625   0.656250 0
  0.968750   0.640625 0
  0.937500   0.640625 0
  0.906250   0.640625 0
  0.890625   0.640625 0
  0.859375   0.640625 0
  0.828125   0.640625 0
  0.796875   0.640625 0
  0.765625   0.640625 0
  0.734375   0.640625 0
  0.718750   0.640625 0
  0.687500   0.640625 0
  0.656250   0.640625 0
  0.625000   0.640625 0
  0.593750   0.640625 0
  0.562500   0.640625 0
  0.546875   0.640625 0
  0.515625   0.640625 0
  0.984375   0.625000 0
  0.953125   0.625000 0
  0.921875   0.625000 0
  0.890625   0.625000 0
  0.875000   0.625000 0
  0.843750   0.625000 0
  0.812500   0.625000 0
  0.781250   0.625000 0
  0.750000   0.625000 0
  0.734375   0.625000 0
  0.718750   0.625000 0
  0.703125   0.625000 0
  0.671875   0.625000 0
  0.640625   0.625000 0
  0.609375   0.625000 0
  0.578125   0.625000 0
  0.562500   0.625000 0
  0.546875   0.625000 0
  0.531250   0.625000 0
  0.968750   0.609375 0
  0.937500   0.609375 0
  0.906250   0.609375 0
  0.875000   0.609375 0
  0.859375   0.609375 0
  0.828125   0.609375 0
  0.796875   0.609375 0
  0.765625   0.609375 0
  0.750000   0.609375 0
  0.734375   0.609375 0
  0.718750   0.609375 0
  0.703125   0.609375 0
  0.687500   0.609375 0
  0.656250   0.609375 0
  0.625000   0.609375 0
  0.593750   0.609375 0
  0.562500   0.609375 0
  0.546875   0.609375 0
  0.531250   0.609375 0
  0.515625   0.609375 0
  0.984375   0.593750 0
  0.953125   0.593750 0
  0.921875   0.593750 0
  0.890625   0.593750 0
  0.859375   0.593750 0
  0.843750   0.593750 0
  0.812500   0.593750 0
  0.781250   0.593750 0
  0.750000   0.593750 0
  0.734375   0.593750 0
  0.718750   0.593750 0
  0.687500   0.593750 0
  0.671875   0.593750 0
  0.640625   0.593750 0
  0.609375   0.593750 0
  0.578125   0.593750 0
  0.562500   0.593750 0
  0.546875   0.593750 0
  0.531250   0.593750 0
  0.515625   0.593750 0
  0.968750   0.578125 0
  0.937500   0.578125 0
  0.906250   0.578125 0
  0.875000   0.578125 0
  0.890625   0.562500 0
  0.843750   0.578125 0
  0.828125   0.578125 0
  0.796875   0.578125 0
  0.765625   0.578125 0
  0.734375   0.578125 0
  0.703125   0.578125 0
  0.671875   0.578125 0
  0.656250   0.578125 0
  0.656250   0.562500 0
  0.625000   0.578125 0
  0.640625   0.562500 0
  0.593750   0.578125 0
  0.562500   0.578125 0
  0.546875   0.578125 0
  0.531250   0.578125 0
  0.515625   0.578125 0
  0.859375   0.562500 0
  0.828125   0.562500 0
  0.781250   0.562500 0
  0.750000   0.562500 0
  0.718750   0.562500 0
  0.687500   0.562500 0
  0.609375   0.562500 0
  0.578125   0.562500 0
  0.562500   0.562500 0
  0.546875   0.562500 0
  0.531250   0.562500 0
  0.515625   0.562500 0
  1.000000   0.812500 0
  0.578125   0.031250 0
  0.875000   0.546875 0
  0.625000   0.546875 0
  0.218750   0.000000 0
  0.640625   0.781250 0
  0.828125   0.093750 0
  0.031250   0.531250 0
  0.296875   0.328125 0
  0.296875   0.312500 0
  0.281250   0.312500 0
  0.765625   0.312500 0
  0.031250   0.859375 0
  0.093750   0.265625 0
  0.109375   0.250000 0
  0.187500   0.671875 0
  0.421875   0.640625 0
  0.031250   0.062500 0
  0.140625   0.125000 0
  0.562500   0.906250 0
  0.125000   0.437500 0
  0.203125   0.937500 0
  0.125000   0.421875 0
  0.140625   0.406250 0
  0.093750   0.437500 0
  0.109375   0.421875 0
  0.093750   0.421875 0
  0.109375   0.406250 0
  0.328125   0.125000 0
  0.750000   0.906250 0
  0.328125   0.109375 0
  0.750000   0.890625 0
  0.312500   0.125000 0
  0.734375   0.906250 0
  0.281250   0.343750 0
  0.265625   0.359375 0
  0.500000   0.796875 0
  0.078125   0.015625 0
  0.062500   0.015625 0
  0.484375   0.796875 0
  0.484375   0.781250 0
  0.062500   0.000000 0
  0.015625   0.250000 0
  0.062500   0.046875 0
  0.484375   0.828125 0
  0.484375   0.812500 0
  0.062500   0.031250 0
  0.281250   0.671875 0
  0.062500   0.234375 0
  0.328125   0.765625 0
  0.312500   0.750000 0
  0.015625   0.671875 0
  0.781250   0.187500 0
  0.015625   0.265625 0
  0.453125   0.250000 0
  0.453125   0.234375 0
  0.031250   0.265625 0
  0.046875   0.250000 0
  0.093750   0.015625 0
  0.265625   0.656250 0
  0.734375   0.281250 0
  0.156250   0.015625 0
  0.062500   0.265625 0
  0.046875   0.281250 0
  0.031250   0.281250 0
  0.343750   0.781250 0
  0.328125   0.781250 0
  0.265625   0.687500 0
  0.265625   0.703125 0
  0.156250   0.109375 0
  0.578125   0.890625 0
  0.484375   0.984375 0
  0.062500   0.203125 0
  0.328125   0.718750 0
  0.343750   0.734375 0
  0.343750   0.750000 0
  0.453125   0.500000 0
  0.437500   0.500000 0
  0.234375   0.093750 0
  0.171875   0.375000 0
  0.437500   0.531250 0
  0.468750   0.546875 0
  0.453125   0.546875 0
  0.187500   0.015625 0
  0.187500   0.000000 0
  0.609375   0.781250 0
[...]
CELL_DATA 7648
SCALARS scalar_value float 1
LOOKUP_TABLE default
0.00901677
0.00968049
0.0111826
0.00875286
0.0451643
0.0439389
0.0475726
0.0411142
0.00923153
0.0107171
0.0114257
0.0218063
0.0206002
0.0179574
0.00232183
0.00204804
0.00216662
0.00167181
9.88026e-06
9.49423e-06
1.13325e-05
8.17485e-06
2.51645e-06
8.99213e-07
9.85764e-07
1.43094e-06
7.78697e-07
0.0196948
0.0206156
1.00392e-07
1.2514e-07
1.69046e-07
9.71569e-08
2.7909e-07
3.46358e-07
4.54157e-07
2.8444e-07
1.02355e-07
1.35031e-07
1.80006e-07
4.66225e-08
1.03293e-07
0.00706771
0.00880699
0.00853951
0.0535506
0.0583569
0.0658027
7.1541e-07
0.0770906
0.11205
7.3144e-06
1.00173e-06
1.26955e-06
0.00229721
1.29396e-06
0.00273985
0.00178697
3.17204e-07
4.64314e-07
6.80157e-07
3.66773e-06
1.95161e-06
0.00286575
0.00251219
0
0
7.75915e-07
0.000497464
3.5889e-10
0.000302352
0
0.00125798
0.00212911
0.00364572
0
0.0155029
0
0.00318313
0.00380704
0.00488988
0
3.26873e-10
0
0.073392
3.58086e-07
0.000196948
0.000178812
0.00327908
0
2.66439e-08
0
1.41248e-05
1.89178e-05
0
5.66364e-07
0.00808098
1.00153e-06
0.0109026
0.0125705
0.00281567
2.47989e-06
0.0030511
0.00514403
5.57108e-06
0.00017289
0.00160889
0.0680012
0.0582476
1.66007e-08
4.78333e-07
0.000458589
0.000449178
0
2.30798e-05
0
2.9175e-05
1.7066e-05
5.47409e-07
0.0383977
0.0374674
0
0
3.06292e-05
0
0
0
0.0509862
0.0585696
0.0434247
1.56328e-10
0.0221628
0
0.0178087
0.000599268
0.0150617
0.0229
1.627e-06
2.74857e-07
0.046713
0.00419322
0.0501268
0.0537216
1.18533e-07
0.0518911
0.0604931
0.0339135
7.64762e-06
0.102957
0.00272554
0.00252522
1.6891e-06
2.19173e-06
2.80528e-06
0.0031883
0.00280563
0.0435983
1.77711e-07
0.0952511
1.29728e-06
0
1.11389e-05
1.29378e-05
0.00100422
0.0627995
0.0684761
1.32136e-07
0.0552538
2.95642e-06
0.0746762
0
0.0952959
0.0571057
0.00237375
0.000402006
1.9272e-05
0.0639394
0.0396826
0.000443276
0.0453533
0.0501983
0.000579918
0.0771555
0.018255
0
1.36656e-05
0.136833
0
0
0.022449
0
0.0237422
0.00831653
1.36848e-10
7.61497e-08
0.00898279
0.0108087
0.00854843
0
0
0
0.0577557
1.8352e-05
0.136855
0.129234
1.49816e-05
1.82697e-06
0.0157169
0.0156428
0.0139477
1.69718e-07
2.66909e-07
3.96058e-07
2.39673e-07
0.080134
3.22975e-05
0
0.0806871
0
0.00325192
0.00689343
0.078869
0.08676
6.70944e-08
0.0738322
1.40315e-08
0.00111221
0.00248041
0.0585089
0.0505966
0.0982656
0.093636
0.0349523
0.000238038
0.122714
0.12143
0.125209
0.118195
0.0246647
0
0.0214443
0.00250999
0.000255314
0.00261083
0.00279005
0.0715751
0.000771276
0.0644472
0.0713563
9.16231e-09
0.05924
0.00214207
1.75197e-06
2.32269e-06
2.20616e-06
0.0159437
0.000110842
0.00463617
0.00487426
7.61044e-06
9.23453e-06
8.96927e-06
0.0269766
2.15846e-07
6.10047e-08
0.0678457
1.35373e-07
0.0727048
9.40965e-08
0.0542471
0.138323
6.97282e-06
0
0.0344515
0.00319366
3.24873e-08
0.0953558
0.00642888
0.000163763
0.000201772
3.67654e-08
0.0144835
0.0046982
0.00427201
0.000366488
0.0160828
0.00419186
3.9857e-08
1.111e-08
0.0199335
1.90951e-08
0.0136268
0.00117799
1.33718e-09
0.000183678
0.000185286
1.80899e-09
0.000227631
0
0.00272337
1.12027e-05
0.000536644
0.0114237
0.00321006
5.36278e-06
4.37777e-06
3.8804e-06
2.41602e-05
0.00789394
7.6616e-05
5.81494e-05
0.0237545
0.0185576
3.46384e-10
0.00517063
0.00248199
2.8504e-05
0.00491596
2.27633e-05
0.00166487
1.70101e-05
3.69012e-06
0.0112644
0.0150484
0.0236324
9.79572e-05
2.14621e-05
0.0142019
0.018558
4.6509e-05
0.013427
1.61208e-06
0.0603247
0.00755858
0.0157058
0.00705131
0.0144551
0.0504826
0.0444231
6.31227e-06
0.00853502
0.0643984
0.0562215
0
0.0284772
0.00389896
0.00521507
0.00719854
6.99072e-09
0
0
0
1.08798e-05
0.0193341
4.79718e-09
0.0185135
1.78905e-08
0.0349027
0.0314104
0.0291552
0.00013843
0.000114654
0.000124701
0.00100838
0.0174958
0.00566654
0.0153726
2.00441e-10
3.85391e-09
2.56311e-09
0.0200468
0.000809054
1.51989e-08
0.0495006
8.94705e-09
0.0636084
0.00297805
2.10442e-09
0.000704766
4.50109e-06
0.000136764
0.0213492
0.000138917
0.000893245
0.0653222
0.00114293
0.0661405
0.000515252
6.94467e-08
0.0284544
0.0223078
0.00159596
0.0468592
0.0364351
0.0515089
6.41797e-07
8.74187e-07
0.0507024
0.00431524
0.00201086
1.64279e-07
0.0639716
0.0150543
0.000537888
0.0174922
0.00134801
3.45542e-08
0.0329885
0.0654064
4.70074e-07
0.00550394
0.00545849
0.0035876
0.00431747
0.000543855
0.00127071
0
0.0012223
9.59261e-09
0.000563763
0.0279365
0.000889932
0.0105393
3.13502e-06
8.75309e-06
7.74915e-06
0.0315474
7.93726e-06
0.00755663
4.45435e-07
0.0138171
1.47412e-05
3.39108e-07
3.08583e-09
3.73331e-07
2.1887e-07
8.06289e-08
0
0.0716799
0.0153565
3.93868e-05
0.0125058
5.02777e-06
6.34342e-06
0.0164396
8.53977e-06
0.0159567
0.0131281
0.010251
0.0132894
0.0988631
1.77784e-05
3.23239e-07
1.4097e-05
0.0111046
4.80629e-07
6.18463e-07
5.23688e-07
0.00346717
0.0059279
0.0669068
1.22287e-05
0.00830364
0.00609797
0
2.46242e-07
2.01069e-07
1.70039e-09
0
7.08808e-09
0.0446406
1.25004e-09
0.000205899
0
1.86212e-09
0.000196423
2.64072e-06
0.00410132
0
0.0176252
0
0.000116246
1.31627e-10
0
0.0299818
0.0361022
0.0425773
0.0166314
2.24475e-05
3.4252e-05
1.65364e-10
3.74794e-05
2.31529e-10
0.000161488
0.00305285
0
1.22047e-05
0.032088
0.00284598
2.60608e-07
1.95073e-07
0.0107466
0.00122398
1.68781e-07
1.24645e-07
0.0640104
6.25501e-07
4.89332e-07
4.55109e-07
3.73276e-07
0.0450195
0.00570275
6.12878e-07
2.14749e-09
0.00691452
1.15926e-07
0.0568612
4.84348e-07
1.09664e-07
0.0587735
3.87849e-07
0.0587549
1.9312e-07
3.24359e-07
0.00352948
0.000611809
0.0982467
0.0434829
0.00061127
0.000440067
0.0363967
8.75008e-08
0.0131426
1.21345e-07
0.00046739
0.12083
0.000638209
0.111395
0.0003708
0.00087116
0.0004912
0.00089532
1.57096e-07
1.62465e-07
0.0558824
0.000587482
0.00311436
0.000479654
0.00301427
0.000573128
0.000434576
0.108006
0.000707364
0.000619803
0.00310198
0.00309347
0.00414634
0.0970924
5.58527e-07
2.58603e-07
0.0884282
7.74973e-08
2.63519e-08
1.29734e-07
0.00520315
0.000389952
5.99965e-06
0.00598596
0.00550588
0.00760772
3.98354e-06
0.00381817
0.000492577
0.0388824
1.21169e-07
0.000436274
0.135945
6.03031e-08
0.00337362
1.15544e-05
0.00210528
0.00205999
3.13936e-08
5.02558e-08
0.00375922
1.98169e-08
0.00471119
0.064141
4.28477e-08
0.11809
0.124897
2.72346e-10
1.74688e-07
2.7973e-07
0.130214
6.42723e-07
0.000976183
0.0451261
1.66815e-07
0.0601343
2.40681e-07
1.57419e-07
6.84111e-08
1.03136e-07
0.0464286
0.00287824
1.26002e-07
0.0105077
0.000725017
0.0583523
0.0552806
0.0535898
0.0215638
0.0194924
0.021348
8.29266e-06
0.0222816
6.91247e-06
3.12709e-07
4.89655e-08
0.0216154
7.48849e-08
9.1991e-08
1.80306e-07
0.0037858
2.2852e-07
1.497e-07
3.6912e-08
5.35373e-08
1.01229e-07
1.58544e-07
0.00553292
2.82732e-08
3.41296e-08
0.109721
0.000138252
0.107859
0.0340704
0.00119457
0.00105513
0.0226747
0.0187875
0.00246487
0.155601
0.0169408
0.0663199
0.0179696
4.60655e-09
7.55606e-09
0
9.68709e-05
0.0452881
0.0511202
1.63437e-08
0
0.000346575
2.34737e-08
0.000270988
0.000846084
0.000175127
0.00756622
0.02131
0.000136723
2.10252e-07
1.82134e-06
0.0858455
2.28982e-07
2.15362e-06
0
0
0
1.30964e-06
0.0565731
3.85903e-07
0.0491282
1.03404e-05
0.00473295
0.00500528
0.00623783
0.0605874
0.0641211
0.0613651
0.0126678
0
0.00191081
0.0884462
0.111947
0.0741706
3.63935e-08
0.00147136
0.0811261
0.0894641
1.05369e-07
0.00247959
0.0820115
0.0972537
0.00374328
5.2584e-06
0.0367925
0.0255052
0.021795
0.00401044
0.022598
0.00014412
0.0169139
6.65245e-05
0.0119652
0.0141117
0.0950484
0.102396
0.141986
0.1418
0.144425
0.0258496
0.0193794
0.113751
0.120055
1.61266e-05
9.49236e-05
0.122337
0.120699
0.0148077
0.0154663
0.0133053
0.112956
0.120396
0.0584049
0.122767
0.00899075
0.0104754
0.0121767
0.1075
0.11595
0.119985
2.59177e-06
1.58228e-06
0.00250721
0.107216
0.107461
0.112609
0.00428861
0.11623
0.129192
0.12107
8.06668e-07
0.00505417
0.00017798
0.00625236
0.0120804
2.81021e-06
0.0795395
0.0883778
0.0937542
5.73136e-08
1.38253e-07
7.79935e-08
9.0127e-08
0.00151239
0.0011534
4.52131e-09
0.00663348
3.52111e-05
5.1041e-09
1.00264e-08
0.000172906
2.44057e-08
0.00242177
0.140929
0.000434054
0.00030337
0.000318992
0.000258951
0.000514937
0.000453851
0.000393638
0.000335574
1.21219e-07
0.000446102
0.000397034
0.0118671
0.0142293
0.000103139
0.000181121
0
0.00374536
0
0.00873257
0.0105831
0.0139161
0.000212389
0.000186272
4.34374e-08
3.42018e-05
4.62521e-06
0.00418693
6.94824e-05
2.82741e-06
0.0041019
4.14018e-09
0.0059974
8.04464e-10
1.88511e-08
0.00457291
1.52769e-05
0.00901747
1.04561e-08
0.0522337
0.012577
4.74051e-05
2.02529e-05
0.00992264
2.63835e-09
0.000216535
0.00349717
0.000190255
0.000208893
0.00974381
0.000265748
0.0585902
0.0582386
4.53747e-08
0.0027545
0.00350942
5.31489e-08
2.8221e-08
0.0522193
0.0193358
0.0352637
5.09131e-10
0.0213001
9.96659e-10
8.1203e-05
0.0500539
0.0509149
0.0434915
0.000237065
0.000215601
0.0131881
0.0067654
0.00574101
1.08254e-06
0.023696
0.0275084
0
1.70772e-05
0.109776
0.00483665
5.4223e-07
3.99719e-06
0.11592
0.00184925
0.00139097
0.0772538
0.0829731
0.00256455
0.0798884
5.57265e-08
0.0179622
0.000426264
0.00266407
0.0816046
1.06108e-06
0.0882405
0.00257195
1.86248e-07
0
0.0132264
2.22719e-06
0.0654772
4.09699e-06
1.0553e-05
0.00831415
9.22521e-06
0
0
0
1.36661e-05
4.74412e-06
0
0.0297528
0
0.0166892
3.56011e-06
3.87253e-06
0
2.01889e-05
0.0118615
0.0165553
4.2798e-05
0
0
0.0100222
0.0116529
0.00940229
0.0724879
0.00781299
0
0
0.00770117
0.00945592
0.000187515
0.00623542
0.00354696
5.62972e-09
0
2.87956e-06
0.00423732
3.07757e-06
1.8915e-06
0.0113444
2.52883e-05
1.11417e-05
0.00855704
0.068189
0.0766966
0
1.7106e-06
0.129154
2.1657e-06
2.14917e-06
4.19164e-06
0.0521321
2.16108e-05
2.51718e-06
1.1037e-06
3.61688e-05
0.0142322
3.69616e-06
0.0156023
0.0109962
0.05916
8.03434e-10
0.0111773
0.0133562
0.0158565
0.0266433
0.000140917
0.0200208
7.41424e-05
3.6316e-05
0.0145873
0.00795705
2.74922e-06
0.00859843
1.32507e-05
0.00911443
0.065923
0
0.000504103
2.82346e-09
0.000393423
1.47255e-06
2.81252e-06
0.000826047
4.34263e-05
0.00165966
0.0238787
9.23031e-10
4.14974e-10
4.04211e-07
0.0634988
0.0699886
0
0.00342877
1.34942e-09
0
3.01767e-10
0.00744501
8.90501e-06
0.00184748
0
0.0713629
3.34166e-06
0
0.0115766
0.0100736
0.110002
0.0160641
0.114299
0.101817
0.0571022
0.112408
0.00313669
1.97197e-05
0.150069
0.0220322
8.73843e-06
0.143907
0.147652
5.68154e-07
0.00216087
2.1073e-05
0
0.0105795
0.0351154
0.000352251
0.00019645
0.0288146
0.126476
0.00109613
0
0.0255867
1.57517e-05
0.143947
0.11257
0.0510109
0.112159
0.0646131
0.000892976
0.00166634
0.105852
0.00378182
0.00145381
0.0459111
0.00038644
0.000732846
0.00376011
8.88568e-06
0.0242928
0.000331038
0.00926082
1.50682e-05
0.129008
0.0045511
7.81886e-05
3.48362e-05
0.01101
0.014759
4.94578e-10
0.0307653
1.4957e-08
3.1449e-09
1.26968e-08
0.00155022
4.83093e-09
0.015209
0.000171973
0.00622492
0.0432008
5.25483e-05
0.0220851
0.0127455
2.9691e-05
6.97761e-08
5.38166e-09
2.02279e-07
0.00396145
0
0
0
4.44285e-06
0.050596
0.000230456
0.072139
0.0582077
0.073782
3.4502e-05
6.25964e-06
0.122189
0.00229522
8.89379e-06
0.0396354
0.0591311
2.83747e-05
2.93126e-06
1.06208e-08
3.60027e-06
3.85915e-05
0.0106285
0.105817
0.0372363
0.120315
2.33329e-06
1.54023e-06
1.77446e-06
2.68471e-06
0.0165577
0.0362484
0.00340727
0
0.0213227
0.0478101
0
0.000848264
0.109561
6.77825e-07
0.0492615
0.00197745
0.00330059
0
9.42821e-07
0.000595135
0.017198
0
0.0238503
3.92941e-08
0.0145813
0.000268103
0.00159713
0.0235531
0
5.10037e-08
9.59873e-07
0.00158321
0.0285441
0.00023675
4.21934e-08
0.0218174
0.0576388
3.2264e-07
4.99998e-05
0.0208212
0.0253404
0.000110268
9.43963e-09
0.00218772
0.0173598
0
0.000733462
0
1.61569e-06
1.41039e-06
0
8.75752e-06
0
0.00410881
0.06008
0.0194929
1.85244e-09
0.0206324
2.14246e-07
0.0015757
0.00891369
1.2681e-05
1.34531e-06
0.109782
0.000407551
6.62368e-08
0.0238082
1.14316e-08
0.0214203
0.00083117
0.00320045
0.0962608
3.47877e-06
0.0199857
3.9119e-06
0.0223038
0.00172221
3.05855e-07
5.55621e-08
0.0205027
5.84448e-09
4.17529e-07
1.62634e-08
0.0176585
9.5047e-10
0.0802028
5.02445e-06
0.00496319
0.00805383
1.10379e-05
2.33087e-06
4.70534e-08
1.20339e-06
0.00302935
2.0998e-05
0.110782
0.0805941
0.000122252
0.00481546
8.20363e-06
0.00763129
0.0118026
0.0710415
0.00280392
0.00687616
6.68405e-06
0.0176261
0.0141626
0.00199704
0.0688205
0.00267383
0
0.0192185
0.0759284
0
0.00377756
2.15399e-07
0.0532333
0.0045672
1.52146e-10
6.36299e-06
0.0690386
0.0734412
3.22492e-06
1.10339e-05
0.00107062
0.00363485
0
0.0581282
0.00137741
0.00516866
3.67322e-06
2.13438e-05
2.47365e-10
0.000106642
0.00417806
0
0.00193957
0
0.0616032
0.0412164
9.51308e-08
0.00392557
0
0.0406553
0.00359839
0.00653703
0.0322397
0.00398425
0
5.0694e-06
0.000385894
0.000362938
2.89835e-09
0
4.89253e-08
4.01219e-07
4.73359e-06
0.101537
0
1.77213e-07
0.0896884
0.0737429
9.72776e-08
0.110515
0.00534164
0.11068
0.09499
0.0106858
0.0475998
0.0278817
0.0819953
0.00293283
0.0948224
3.01375e-07
0.081003
4.05291e-05
1.61992e-07
0.0627587
0.000115416
0.000174406
0.0172143
2.07689e-06
0.0132238
7.09887e-05
0.000115651
1.05542e-08
8.30454e-07
0.0847958
0.0375593
1.54303e-05
0.0153585
0.00448691
0.00396043
0
0.0418139
0.00197611
0
0.021533
0.00337355
0.0769307
0.0194139
0.00328195
0.0049154
3.45805e-07
0.0727133
5.05921e-07
2.12199e-07
0.00053236
0.0017649
0
0.0905333
0.000198354
0.00429125
0.00143084
0
0.00284546
0.0144491
0
0
0.000394087
2.90026e-10
1.16153e-07
1.98955e-08
0.0152403
0.000973303
0.0119448
0
0
0.00775787
0
0
0.00343254
0
0.00869135
0
0
4.37738e-06
0.00504884
0.00792523
9.68392e-06
8.60354e-10
0
0.0364351
0.0372346
0.000288524
0.0392797
0.0514982
0.000407116
2.56036e-10
4.28351e-08
0.00279125
0.00113352
5.76659e-10
7.73219e-10
3.67389e-09
0.00397124
0.000205196
2.34045e-05
9.57761e-05
1.92274e-10
7.15174e-08
3.63265e-10
8.08059e-09
1.47247e-10
0.00359766
5.74113e-05
0
0.000120088
0.0253265
0.000268808
0.000293299
0.0399048
0.0845773
0.000223353
0
0.000720845
0
0.0841654
0
5.42274e-05
0.0214075
0.00012631
2.50565e-07
0.0590156
1.36823e-06
0
0.0290197
0.00025935
0.0264674
0.00461657
0.0141201
0.0513534
0.000343793
6.72614e-06
1.69259e-05
0.0842713
0.0835732
0.00284034
1.95965e-06
0.0100753
1.7129e-05
0
0
6.08972e-07
0.000682313
0.0585902
0.0628443
0.00119679
0.00670859
7.88856e-06
0
0.113914
0.0368693
0.0352287
0
0.0710277
0.000517615
0.0944678
3.41786e-07
0.0518532
0.002792
0.157145
0.0038263
0
0.0185831
1.22921e-05
0.155296
0.036152
0.00618782
0.00434417
2.30346e-07
1.68943e-07
0
3.26792e-05
0.0129899
0.000294078
0.00011537
7.23298e-08
1.24911e-10
0.00296701
1.86897e-06
0.0135428
0.142683
0.135992
0.138087
0.156058
9.56444e-05
0
0.0981554
0.1551
0
7.27658e-06
0.00937994
0.013954
1.58377e-05
1.78827e-08
0.157355
0.000941328
0.049187
3.15697e-07
0.0127795
5.77728e-08
6.47613e-08
8.7784e-05
0.131111
8.7603e-10
0.156426
0.0406148
0.00038327
0.0510834
0.0138475
0.0250754
0
0.133432
0.121452
0.115534
0.0019044
0.14472
0.0492234
0.00157022
0.155353
0.023342
1.83688e-08
0.0894639
2.66257e-07
0.0003995
0.156618
0.0869163
1.00473e-05
0.155599
0.0846748
0.000311136
0.0535447
0.0560262
0.00042533
0.15659
0.018554
0.00222649
0.00983764
0.0740739
0.0788236
0
0.0793283
3.43245e-07
8.24198e-05
3.3177e-08
0.00418318
5.86422e-05
0.0149749
7.92113e-07
0.0663088
0
0.0142226
0.114651
0.00647264
0.00414636
0.105691
0.00434021
0.00358767
0.0134973
6.38922e-10
0.157571
0.048794
0.00324319
0.00050655
0.0189168
0.0271377
8.33502e-09
0.0959826
0.0154379
1.51627e-05
0.000687857
0.00522774
0
0.00404777
1.1048e-05
0.00152883
0.0290031
0.000447912
0.00162426
1.46227e-05
2.90607e-05
0.0197807
0.0215659
0.0862737
2.92753e-07
0.0695147
0.0126157
0.074033
0.0763823
0.00282843
0.150224
2.43336e-05
9.04068e-06
0.0372312
0.000154393
0.0118536
1.70741e-05
0.153207
2.84365e-08
0.000759991
0.157382
0.0654232
0
0.00506107
0.0245958
0.00769864
0.0158935
0
0.00200495
0.000100394
0.0576549
1.4964e-07
0.0518606
0.000450986
9.95952e-07
0.0014588
0.00277662
2.25215e-06
0.0757574
1.37188e-06
0.000477842
0.0578714
1.16263e-07
0.00194892
0.077535
0.0039989
1.17832e-07
0.000522181
0.103552
1.02889e-06
0.0283403
1.59132e-06
2.19126e-06
0.0186718
0.0142695
0.000597808
0.00820763
0
0
2.84069e-05
0.0015661
0.0111946
0
0.0073055
0.0103149
3.71798e-05
1.26838e-08
4.25051e-06
8.34083e-05
1.39841e-05
0.0647926
4.41061e-06
0.0821366
1.19623e-06
1.28125e-06
0
4.40894e-06
0
0
0.00998554
0.128563
2.08465e-05
0
0.075184
6.35928e-05
8.69318e-06
7.10629e-05
1.31184e-09
0.0222334
0.0884046
0.000234674
0.0311141
0.045363
2.73825e-05
4.10932e-05
3.81813e-09
0.00412729
1.30067e-06
5.90614e-07
0.00163202
0.027357
3.75149e-05
0.00831232
8.24351e-06
0.00791834
0.0222892
0.136039
1.7234e-09
0.00484341
0.0899586
0.0182181
0.0444804
0.000331044
0.0819442
0.105064
0.0436283
0.01024
0.0801581
2.7069e-05
6.49526e-05
0.0018737
0.00127256
0.038295
1.83348e-07
0.00262879
0.0641327
0.00448769
0.0577915
2.20622e-07
8.12483e-08
0.00164858
0.0812244
0.00214494
0.000901359
0.0656787
0.0113973
0.0817135
0.101562
0.000632257
0.0442404
0.110675
0.149661
0.00657718
0
0.0175844
0.000354227
0.0455145
0
0.0276608
6.85205e-06
0.135715
3.18174e-05
0.0107266
1.10534e-05
1.07624e-09
0.00309042
4.60664e-06
0.0107222
0.156039
3.70552e-06
0.000407757
1.1927e-05
0.133935
7.89851e-05
8.33327e-08
1.12367e-06
0.00156858
0.127552
0.133547
0.0361609
0.0037863
2.33624e-05
0.151506
0.0232061
0.0816497
0.0922284
0.0709458
1.40132e-07
0.00108494
0.0493322
0.00649076
0.00588672
0.0625321
0.12191
0.0939341
2.13543e-09
1.47863e-07
0.051483
0.000505933
0.00033409
0.0406031
0.0177843
6.07415e-06
0.00774316
0.0856719
0.085834
0.0769595
0.0861042
3.13784e-07
0.088078
1.7707e-05
0.0829477
3.37216e-07
0.0797109
5.77505e-08
0.00232453
3.12873e-08
0.046011
0.00351412
0.00028037
3.32536e-05
0.0138063
0.0203984
0.000318866
0.0101546
2.75693e-08
0.0219923
0.000235103
6.1907e-10
1.31169e-08
0.0340428
0.00651722
5.32977e-09
0.0706146
9.37375e-07
0
0
0.0532493
7.82666e-08
0
0.00308596
0.00562008
3.57479e-06
0.00975716
1.53422e-05
0
0.000125138
9.19992e-06
1.40667e-05
0.00286426
2.75063e-06
0.0830227
2.49034e-06
0
0
0.02166
0.000258884
2.88044e-06
7.42579e-07
0.0721425
0
0.00312455
0
0.074038
0.00304034
9.91553e-07
0.068381
0.00536734
0
0
0.00394154
0.0835078
7.41277e-07
0.0163912
6.79376e-05
1.87631e-09
0.0123416
0.0886747
0.0125932
0.0980992
0.0133119
0.0125052
0.000337978
0.0922834
0.0109795
6.7863e-08
7.21217e-07
1.21739e-05
0.142368
4.24676e-05
1.05122e-05
0.145053
6.10111e-07
0.0349284
0.0803867
0.154722
0.00092996
2.25898e-09
2.43758e-08
0.0189238
0.00321502
0
0.000252582
0.000304267
0.0652075
0.0235189
0.00448879
0.0127926
0.0419813
0.000257769
0.00189817
0
0
0.0264037
0
0.00955732
0.00337741
1.70956e-06
2.67655e-08
0.00498038
0.157177
0.0554104
5.61705e-07
8.98858e-07
7.29832e-07
8.72808e-07
0.00265884
4.68651e-07
0.00248277
0.000527269
0.138341
5.16529e-08
0.0593407
5.85558e-07
0.00351831
7.57903e-07
8.87604e-08
8.18687e-07
0.0893644
0.131043
9.40329e-07
0.00304991
3.97341e-06
0.00243257
0.0708963
3.92172e-07
5.23984e-06
0.0113711
0.0175595
0.000236014
0.00798458
6.43328e-07
0.0767466
0.00148593
0.0107633
6.8692e-06
3.13989e-06
0.00655351
0.123828
1.17716e-05
0
0
2.31927e-06
3.96478e-05
6.52592e-06
0.011287
0.0662819
0.0599938
1.06196e-08
0.00354091
0.00118419
0.00117376
0.156961
0
0.010132
0
0.00407371
0.0760941
3.0541e-06
0
9.15999e-07
6.60736e-08
0.0504525
0.0483993
0.00495598
0
0
0.00933625
1.3335e-05
2.0776e-05
0.0915726
0.00408572
0.0166058
1.90889e-09
3.3149e-06
0.00231312
0.000287562
0.0921094
0.0259791
0.0884946
2.55453e-09
1.4703e-08
1.98533e-08
5.62717e-09
1.01259e-06
7.73387e-09
0.000773899
0.000796917
0.00722127
0.0611739
0.026875
0.00971754
2.04714e-05
4.82185e-10
6.0516e-05
0.000563217
1.99897e-05
4.5458e-06
0.00231623
2.95029e-07
0.00463347
0.00650943
0.00290232
0.000383592
0.00567232
0.0797217
0
0
2.33742e-07
0.0548222
0.0642192
1.42102e-06
1.09344e-07
0.057766
7.52709e-08
0.0578208
0.0724444
0.0495099
0.0529195
4.775e-10
4.73454e-07
0.0636112
0.00527319
0.000425685
0.0240947
1.37819e-08
0
0.00442218
0.000112291
0.000154918
0.000115893
0.0296184
2.5222e-09
0.0279893
0.0351711
2.96281e-05
0
0
0.00103612
4.06619e-07