# vtk DataFile Version 2.0
Unstructured Grid by M++
ASCII
DATASET UNSTRUCTURED_GRID
POINTS 4072 float
  0.609375   0.843750 0
  0.562500   0.843750 0
  0.531250   0.843750 0
  0.875000   0.828125 0
  0.984375   0.828125 0
  0.953125   0.828125 0
  0.937500   0.828125 0
  0.843750   0.828125 0
  0.812500   0.828125 0
  0.781250   0.828125 0
  0.765625   0.828125 0
  0.734375   0.828125 0
  0.703125   0.828125 0
  0.671875   0.828125 0
  0.640625   0.828125 0
  0.609375   0.828125 0
  0.593750   0.828125 0
  0.562500   0.828125 0
  0.546875   0.828125 0
  0.531250   0.828125 0
  0.515625   0.828125 0
  0.968750   0.812500 0
  0.937500   0.812500 0
  0.921875   0.812500 0
  0.890625   0.812500 0
  0.859375   0.812500 0
  0.828125   0.812500 0
  0.796875   0.812500 0
  0.765625   0.812500 0
  0.750000   0.812500 0
  0.718750   0.812500 0
  0.687500   0.812500 0
  0.656250   0.812500 0
  0.625000   0.812500 0
  0.593750   0.812500 0
  0.578125   0.812500 0
  0.546875   0.812500 0
  0.531250   0.812500 0
  0.515625   0.812500 0
  0.984375   0.796875 0
  0.562500   0.015625 0
  0.953125   0.796875 0
  0.921875   0.796875 0
  0.906250   0.796875 0
  0.875000   0.796875 0
  0.843750   0.796875 0
  0.812500   0.796875 0
  0.781250   0.796875 0
  0.750000   0.796875 0
  0.734375   0.796875 0
  0.703125   0.796875 0
  0.671875   0.796875 0
  0.640625   0.796875 0
  0.609375   0.796875 0
  0.578125   0.796875 0
  0.562500   0.796875 0
  0.531250   0.796875 0
  0.515625   0.796875 0
  0.968750   0.781250 0
  0.546875   0.000000 0
  0.937500   0.781250 0
  0.906250   0.781250 0
  0.890625   0.781250 0
  0.859375   0.781250 0
  0.828125   0.781250 0
  0.796875   0.781250 0
  0.765625   0.781250 0
  0.734375   0.781250 0
  0.718750   0.781250 0
  0.687500   0.781250 0
  0.656250   0.781250 0
  0.625000   0.781250 0
  0.593750   0.781250 0
  0.562500   0.781250 0
  0.546875   0.781250 0
  0.515625   0.781250 0
  0.984375   0.765625 0
  0.953125   0.765625 0
  0.921875   0.765625 0
  0.890625   0.765625 0
  0.875000   0.765625 0
  0.843750   0.765625 0
  0.812500   0.765625 0
  0.781250   0.765625 0
  0.750000   0.765625 0
  0.718750   0.765625 0
  0.703125   0.765625 0
  0.671875   0.765625 0
  0.640625   0.765625 0
  0.609375   0.765625 0
  0.578125   0.765625 0
  0.593750   0.750000 0
  0.562500   0.765625 0
  0.546875   0.765625 0
  0.531250   0.765625 0
  0.562500   0.750000 0
  0.968750   0.750000 0
  0.937500   0.750000 0
  0.906250   0.750000 0
  0.875000   0.750000 0
  0.859375   0.750000 0
  0.828125   0.750000 0
  0.796875   0.750000 0
  0.765625   0.750000 0
  0.734375   0.750000 0
  0.703125   0.750000 0
  0.687500   0.750000 0
  0.671875   0.750000 0
  0.656250   0.750000 0
  0.625000   0.750000 0
  0.546875   0.750000 0
  0.531250   0.750000 0
  0.515625   0.750000 0
  0.562500   0.734375 0
  0.984375   0.734375 0
  0.953125   0.734375 0
  0.921875   0.734375 0
  0.890625   0.734375 0
  0.859375   0.734375 0
  0.843750   0.734375 0
  0.812500   0.734375 0
  0.781250   0.734375 0
  0.750000   0.734375 0
  0.718750   0.734375 0
  0.687500   0.734375 0
  0.671875   0.734375 0
  0.656250   0.734375 0
  0.640625   0.734375 0
  0.546875   0.734375 0
  0.531250   0.734375 0
  0.515625   0.734375 0
  0.562500   0.718750 0
  0.968750   0.718750 0
  0.937500   0.718750 0
  0.906250   0.718750 0
  0.875000   0.718750 0
  0.843750   0.718750 0
  0.796875   0.718750 0
  0.765625   0.718750 0
  0.734375   0.718750 0
  0.703125   0.718750 0
  0.687500   0.718750 0
  0.671875   0.718750 0
  0.656250   0.718750 0
  0.625000   0.718750 0
  0.546875   0.718750 0
  0.531250   0.718750 0
  0.515625   0.718750 0
  0.562500   0.703125 0
  0.953125   0.703125 0
  0.921875   0.703125 0
  0.890625   0.703125 0
  0.859375   0.703125 0
  0.828125   0.703125 0
  0.781250   0.703125 0
  0.750000   0.703125 0
  0.718750   0.703125 0
  0.687500   0.703125 0
  0.656250   0.703125 0
  0.546875   0.703125 0
  0.531250   0.703125 0
  0.515625   0.703125 0
  0.984375   0.687500 0
  0.937500   0.687500 0
  0.921875   0.687500 0
  0.906250   0.687500 0
  0.875000   0.687500 0
  0.843750   0.687500 0
  0.812500   0.687500 0
  0.765625   0.687500 0
  0.734375   0.687500 0
  0.703125   0.687500 0
  0.671875   0.687500 0
  0.640625   0.687500 0
  0.593750   0.687500 0
  0.562500   0.687500 0
  0.546875   0.687500 0
  0.531250   0.687500 0
  0.515625   0.687500 0
  0.968750   0.671875 0
  0.937500   0.671875 0
  0.921875   0.671875 0
  0.906250   0.671875 0
  0.890625   0.671875 0
  0.859375   0.671875 0
  0.828125   0.671875 0
  0.796875   0.671875 0
  0.765625   0.671875 0
  0.750000   0.671875 0
  0.718750   0.671875 0
  0.687500   0.671875 0
  0.656250   0.671875 0
  0.625000   0.671875 0
  0.593750   0.671875 0
  0.578125   0.671875 0
  0.546875   0.671875 0
  0.531250   0.671875 0
  0.515625   0.671875 0
  0.984375   0.656250 0
  0.953125   0.656250 0
  0.937500   0.656250 0
  0.921875   0.656250 0
  0.906250   0.656250 0
  0.875000   0.656250 0
  0.843750   0.656250 0
  0.812500   0.656250 0
  0.781250   0.656250 0
  0.750000   0.656250 0
  0.734375   0.656250 0
  0.703125   0.656250 0
  0.671875   0.656250 0
  0.640625   0.656250 0
  0.609375   0.656250 0
  0.578125   0.656250 0
  0.562500   0.656250 0
  0.531250   0.656250 0
  0.515625   0.656250 0
  0.968750   0.640625 0
  0.937500   0.640625 0
  0.906250   0.640625 0
  0.890625   0.640625 0
  0.859375   0.640625 0
  0.828125   0.640625 0
  0.796875   0.640625 0
  0.765625   0.640625 0
  0.734375   0.640625 0
  0.718750   0.640625 0
  0.687500   0.640625 0
  0.656250   0.640625 0
  0.625000   0.640625 0
  0.593750   0.640625 0
  0.562500   0.640625 0
  0.546875   0.640625 0
  0.515625   0.640625 0
  0.984375   0.625000 0
  0.953125   0.625000 0
  0.921875   0.625000 0
  0.890625   0.625000 0
  0.875000   0.625000 0
  0.843750   0.625000 0
  0.812500   0.625000 0
  0.781250   0.625000 0
  0.750000   0.625000 0
  0.734375   0.625000 0
  0.718750   0.625000 0
  0.703125   0.625000 0
  0.671875   0.625000 0
  0.640625   0.625000 0
  0.609375   0.625000 0
  0.578125   0.625000 0
  0.562500   0.625000 0
  0.546875   0.625000 0
  0.531250   0.625000 0
  0.968750   0.609375 0
  0.937500   0.609375 0
  0.906250   0.609375 0
  0.875000   0.609375 0
  0.859375   0.609375 0
  0.828125   0.609375 0
  0.796875   0.609375 0
  0.765625   0.609375 0
  0.750000   0.609375 0
  0.734375   0.609375 0
  0.718750   0.609375 0
  0.703125   0.609375 0
  0.687500   0.609375 0
  0.656250   0.609375 0
  0.625000   0.609375 0
  0.593750   0.609375 0
  0.562500   0.609375 0
  0.546875   0.609375 0
  0.531250   0.609375 0
  0.515625   0.609375 0
  0.984375   0.593750 0
  0.953125   0.593750 0
  0.921875   0.593750 0
  0.890625   0.593750 0
  0.859375   0.593750 0
  0.843750   0.593750 0
  0.812500   0.593750 0
  0.781250   0.593750 0
  0.750000   0.593750 0
  0.734375   0.593750 0
  0.718750   0.593750 0
  0.687500   0.593750 0
  0.671875   0.593750 0
  0.640625   0.593750 0
  0.609375   0.593750 0
  0.578125   0.593750 0
  0.562500   0.593750 0
  0.546875   0.593750 0
  0.531250   0.593750 0
  0.515625   0.593750 0
  0.968750   0.578125 0
  0.937500   0.578125 0
  0.906250   0.578125 0
  0.875000   0.578125 0
  0.890625   0.562500 0
  0.843750   0.578125 0
  0.828125   0.578125 0
  0.796875   0.578125 0
  0.765625   0.578125 0
  0.734375   0.578125 0
  0.703125   0.578125 0
  0.671875   0.578125 0
  0.656250   0.578125 0
  0.656250   0.562500 0
  0.625000   0.578125 0
  0.640625   0.562500 0
  0.593750   0.578125 0
  0.562500   0.578125 0
  0.546875   0.578125 0
  0.531250   0.578125 0
  0.515625   0.578125 0
  0.859375   0.562500 0
  0.828125   0.562500 0
  0.781250   0.562500 0
  0.750000   0.562500 0
  0.718750   0.562500 0
  0.687500   0.562500 0
  0.609375   0.562500 0
  0.578125   0.562500 0
  0.562500   0.562500 0
  0.546875   0.562500 0
  0.531250   0.562500 0
  0.515625   0.562500 0
  1.000000   0.812500 0
  0.578125   0.031250 0
  0.875000   0.546875 0
  0.625000   0.546875 0
  0.218750   0.000000 0
  0.640625   0.781250 0
  0.828125   0.093750 0
  0.031250   0.531250 0
  0.296875   0.328125 0
  0.296875   0.312500 0
  0.281250   0.312500 0
  0.765625   0.312500 0
  0.031250   0.859375 0
  0.093750   0.265625 0
  0.109375   0.250000 0
  0.187500   0.671875 0
  0.421875   0.640625 0
  0.031250   0.062500 0
  0.140625   0.125000 0
  0.562500   0.906250 0
  0.125000   0.437500 0
  0.203125   0.937500 0
  0.125000   0.421875 0
  0.140625   0.406250 0
  0.093750   0.437500 0
  0.109375   0.421875 0
  0.093750   0.421875 0
  0.109375   0.406250 0
  0.328125   0.125000 0
  0.750000   0.906250 0
  0.328125   0.109375 0
  0.750000   0.890625 0
  0.312500   0.125000 0
  0.734375   0.906250 0
  0.281250   0.343750 0
  0.265625   0.359375 0
  0.500000   0.796875 0
  0.078125   0.015625 0
  0.062500   0.015625 0
  0.484375   0.796875 0
  0.484375   0.781250 0
  0.062500   0.000000 0
  0.015625   0.250000 0
  0.062500   0.046875 0
  0.484375   0.828125 0
  0.484375   0.812500 0
  0.062500   0.031250 0
  0.281250   0.671875 0
  0.062500   0.234375 0
  0.328125   0.765625 0
  0.312500   0.750000 0
  0.015625   0.671875 0
  0.781250   0.187500 0
  0.015625   0.265625 0
  0.453125   0.250000 0
  0.453125   0.234375 0
  0.031250   0.265625 0
  0.046875   0.250000 0
  0.093750   0.015625 0
  0.265625   0.656250 0
  0.734375   0.281250 0
  0.156250   0.015625 0
  0.062500   0.265625 0
  0.046875   0.281250 0
  0.031250   0.281250 0
  0.343750   0.781250 0
  0.328125   0.781250 0
  0.265625   0.687500 0
  0.265625   0.703125 0
  0.156250   0.109375 0
  0.578125   0.890625 0
  0.484375   0.984375 0
  0.062500   0.203125 0
  0.328125   0.718750 0
  0.343750   0.734375 0
  0.343750   0.750000 0
  0.453125   0.500000 0
  0.437500   0.500000 0
  0.234375   0.093750 0
  0.171875   0.375000 0
  0.437500   0.531250 0
  0.468750   0.546875 0
  0.453125   0.546875 0
  0.187500   0.015625 0
  0.187500   0.000000 0
  0.609375   0.781250 0
[...]
CELL_DATA 7648
SCALARS scalar_value float 1
LOOKUP_TABLE default
0.0737122
0.0768993
0.0847289
0.0716792
0.00477438
0.00416035
0.0044551
0.00358652
0.0738571
0.0817279
0.0856582
0.00272748
0.00213019
0.00221881
0.0292946
0.0266984
0.0279234
0.0228689
0.000279338
0.000267393
0.000312129
0.000232455
2.66507e-05
2.81279e-05
3.05075e-05
4.37324e-05
2.41953e-05
0.0924298
0.092446
1.54034e-06
1.87502e-06
2.55778e-06
1.38045e-06
4.15499e-06
5.01228e-06
6.63435e-06
3.87797e-06
1.33687e-06
1.71376e-06
2.29765e-06
1.54111e-06
3.35597e-06
0.0272911
0.0293985
0.0268605
0.0692439
0.0689441
0.0740321
1.50429e-05
0.0964512
0.0473087
0.000112725
2.32466e-05
2.73835e-05
0.00332035
3.93154e-05
0.00335383
0.0026291
9.73043e-06
1.41232e-05
2.05276e-05
9.92617e-05
3.34038e-05
0.00254456
0.0024925
4.86648e-10
5.997e-10
1.92978e-05
0.00459723
1.2723e-08
0.00555763
0
0.0102609
0.0149167
0.00437685
5.767e-10
0.0913679
9.89916e-10
0.00331271
0.0229048
0.027056
0
1.18437e-08
5.44078e-10
0.0520044
4.72803e-06
0.00382947
0.00350923
0.00171861
0
6.99012e-07
1.32657e-10
0.000364241
0.000465506
1.43729e-10
1.656e-05
0.0142125
3.02495e-05
0.0199596
0.0202999
0.0179806
4.25954e-05
0.0186973
0.0273604
9.69313e-05
0.00179605
0.0190588
0.0498727
0.0366972
5.51069e-07
1.47048e-05
0.00148727
0.00138141
4.2414e-10
0.000569571
4.3341e-10
0.000693747
0.000442883
1.24509e-05
0.00376353
0.00329074
0
1.05659e-10
0.000436445
2.15329e-10
5.58928e-10
3.05712e-10
0.140233
0.142838
0.128934
2.33369e-09
0.045147
1.34982e-10
0.00431942
0.0100933
0.00304969
0.132994
3.51552e-05
4.74324e-06
0.0570576
0.0043164
0.056859
0.0596355
2.04459e-06
0.0557397
0.0785067
0.00246033
0.000107524
0.0377144
0.00201846
0.00180107
4.96231e-05
6.36238e-05
8.08929e-05
0.000103263
0.000110975
0.00964093
3.07177e-06
0.11143
3.00963e-05
0
0.000321502
0.00037039
0.0092983
0.0927518
0.0878065
2.12211e-06
0.082467
7.79857e-05
0.00639334
1.59417e-10
0.185272
0.0518322
0.000162755
0.00131925
0.000173381
0.00929432
0.0808256
0.00517006
0.088979
0.0859602
0.00617078
0.049077
0.093712
1.37325e-10
0.000244856
0.0633963
0
1.67392e-10
0.0875003
1.96171e-10
0.0797236
0.00621686
5.0648e-09
2.43265e-06
0.00615191
0.00731092
0.00550988
4.66921e-10
6.19836e-10
5.90372e-10
0.0265795
0.000370922
0.0540637
0.0520515
0.000248864
4.51098e-05
0.00283267
0.00232621
0.00245647
5.29735e-06
8.23284e-06
1.21062e-05
7.40612e-06
0.190731
0.00073359
0
0.00602617
0
0.0091801
0.016851
0.166571
0.163079
1.71746e-06
0.154702
3.35233e-07
0.00435281
0.00680872
0.13312
0.125691
0.0232515
0.0261894
0.103122
0.00356717
0.0312133
0.0279403
0.0272665
0.0258438
0.0702614
2.88925e-10
0.062363
8.32176e-05
0.00482203
0.00173211
0.00167187
0.17857
0.0113937
0.168764
0.168396
2.46527e-07
0.154386
0.00265828
4.1967e-05
5.39273e-05
4.94964e-05
0.0941388
0.00198267
0.0025016
0.0022038
0.000214905
0.000255238
0.000244125
0.0401223
6.48935e-06
1.77213e-06
0.184266
2.44034e-06
0.116123
1.60014e-06
0.179678
0.132914
0.00015976
0
0.0033999
0.000180679
9.54126e-07
0.0099553
0.00467922
0.0032543
0.00395641
1.18798e-06
0.103085
0.00415349
0.000156922
0.00645847
0.010605
0.000140198
1.13216e-06
1.43831e-07
0.0313756
2.57494e-07
0.00192989
0.00275611
1.99361e-08
0.00314717
0.00314886
2.53624e-08
0.0037918
0
0.00316806
0.000164832
0.00919512
0.000520385
0.00241069
0.000154561
0.000126851
0.000111958
0.000534632
0.00678292
0.00168541
0.00135883
0.0382881
0.00278035
1.00186e-08
0.00168606
0.0159463
0.000675607
0.0017712
0.000556792
0.0123526
0.000436895
0.000107673
0.0865723
0.0439956
0.051631
0.00123034
0.000296367
0.0390709
0.0455121
0.000619261
0.0263272
4.88092e-05
0.0820288
0.0662673
0.000896543
0.0636458
0.000765214
0.010232
0.0089465
9.24873e-05
0.0304649
0.0127593
0.0103642
0
0.0026348
0.0424464
0.0522455
0.000285175
9.18321e-08
3.13874e-10
5.25044e-10
4.68898e-10
0.000314186
0.0203705
1.63972e-07
0.0239842
5.9664e-07
0.00282399
0.00256233
0.00219401
0.00186061
0.00163272
0.00184685
0.0154691
0.0402369
0.00243639
0.0262882
5.32018e-09
9.57456e-08
7.03685e-08
0.0521486
0.0129555
4.48172e-07
0.175233
2.57501e-07
0.178184
0.000229278
6.09013e-08
0.00167839
0.000132531
0.00242219
0.0238892
0.00117141
0.00223579
0.134773
0.0116014
0.132061
0.00885584
2.17222e-06
0.00940175
0.00637424
0.021956
0.0164753
0.0103865
0.0255935
7.5318e-06
1.70116e-05
0.00931993
0.00103077
0.0264344
1.96468e-06
0.0400496
0.0320111
0.00150882
0.0318369
0.0194588
1.05735e-06
0.158182
0.0288197
5.33302e-06
0.000293806
0.00532608
0.00410522
0.000458507
0.0087626
0.00208902
3.62813e-10
0.00193295
3.11143e-07
0.00937839
0.147216
0.01388
0.00112358
7.96102e-05
0.000254034
0.00022507
0.00211362
0.000230544
0.00778951
1.39423e-05
0.035079
0.000195918
1.06664e-05
1.0663e-07
1.16391e-05
6.97982e-06
2.61377e-06
0
0.0242277
0.0562952
0.000627359
0.0523902
0.000129266
0.000184753
0.0190462
0.000248276
0.017615
0.0144236
0.0360453
0.0393349
0.0261007
0.000225241
1.04516e-05
0.000205858
0.0363893
1.53155e-05
1.96196e-05
1.64951e-05
0.00530021
0.00225236
0.0268458
0.000211239
0.0389511
0.0262238
0
7.99612e-06
6.47972e-06
5.88166e-08
0
2.40231e-07
0.116192
3.50426e-08
0.00394601
1.9631e-10
4.80864e-08
0.00373205
4.16757e-05
0.0214792
0
0.0662545
4.9494e-10
0.00238943
1.81735e-09
8.98227e-10
0.114409
0.123443
0.129838
0.035642
0.000281337
0.000401907
6.07827e-09
0.000917362
8.48785e-09
0.00316862
0.00409541
1.67685e-09
0.000132348
0.00292493
0.017306
7.25925e-06
5.45054e-06
0.0100459
0.0121108
2.3513e-06
1.72093e-06
0.0623331
1.7268e-05
1.35824e-05
1.23424e-05
1.05695e-05
0.00640235
0.00999872
1.8597e-05
7.49819e-08
0.0105748
3.40947e-06
0.170744
1.38653e-05
3.13221e-06
0.157399
1.11535e-05
0.066122
3.8371e-06
6.44463e-06
0.00223741
0.00603048
0.0110492
0.0626104
0.00587092
0.00430208
0.0562849
2.68878e-06
0.000813618
3.72252e-06
0.00207482
0.0498228
0.00233807
0.0550695
0.00158323
0.00296811
0.00203977
0.00253371
3.04846e-06
2.9878e-06
0.0186905
0.00922393
0.000335424
0.00504299
0.00187846
0.00550888
0.00443114
0.0148773
0.00804843
0.00720207
0.0260595
0.0242913
0.0323816
0.126268
1.16245e-05
5.04405e-06
0.118601
2.59833e-06
8.87939e-07
4.23916e-06
0.0245543
0.00356335
9.61027e-05
0.0276109
0.0267845
0.0316384
9.98492e-05
0.00203745
0.00494585
0.0634279
3.78942e-06
0.00769078
0.100212
2.00393e-06
0.000452194
0.000303818
0.0191014
0.0190206
1.01456e-06
1.60345e-06
0.00188832
6.46717e-07
0.0486576
0.110527
1.13327e-06
0.133335
0.122887
3.73037e-09
2.8374e-06
8.25158e-06
0.0255878
1.9639e-05
0.0147416
0.171664
4.98082e-06
0.178815
7.04474e-06
4.66724e-06
1.12317e-06
3.1035e-06
0.177869
0.000131998
3.7649e-06
0.000452544
0.0118309
0.00544468
0.00479869
0.00422858
0.0252947
0.0239228
0.0264561
0.000241673
0.00755391
0.000201606
8.2446e-06
6.12323e-07
0.0279756
9.7187e-07
1.12613e-06
5.22808e-06
0.000120308
6.60526e-06
4.26621e-06
5.2906e-07
7.7453e-07
3.19672e-06
4.947e-06
0.00284929
3.84526e-07
4.34601e-07
0.0185568
0.00272498
0.0156193
0.104983
0.017611
0.0159779
0.00341201
0.00338884
0.0246179
0.0580949
0.0176292
0.143272
0.00305003
1.56598e-07
2.52843e-07
3.32414e-10
0.000776668
0.105611
0.11587
4.43378e-07
8.15683e-10
0.00624353
5.69585e-07
0.0049614
0.0133714
0.00320234
0.0294367
0.126437
0.00259239
5.29975e-06
2.45902e-05
0.0440813
6.03788e-06
3.09048e-05
0
0
0
3.93623e-05
0.00775504
1.18469e-05
0.00627446
8.7019e-05
0.0480807
0.0495548
0.0571847
0.0497317
0.0523024
0.0461591
0.0861544
0
0.0219182
0.173349
0.125572
0.141664
7.56499e-07
4.67645e-05
0.141663
0.147747
2.43998e-06
0.0220631
0.138163
0.141727
0.032141
0.000155787
0.0159637
0.0378723
0.035718
0.000907987
0.10052
0.00243514
0.0865195
0.00119516
0.0577715
0.0632257
0.051297
0.0517385
0.0471064
0.0423612
0.0408761
0.0921676
0.0781068
0.043031
0.0423234
0.000246432
0.00137854
0.0452192
0.0382
0.0779668
0.0779137
0.068566
0.0585227
0.0580552
0.168125
0.0530547
0.0570522
0.0656562
0.0717107
0.0757709
0.0760634
0.070722
7.63266e-05
4.69828e-05
0.0308809
0.0945587
0.0988428
0.0896022
0.00162515
0.100002
0.0949252
0.0900855
2.42441e-05
0.0374589
0.00350119
0.0425264
0.0907425
5.06574e-05
0.0797396
0.0827323
0.0790032
1.83235e-06
4.32351e-06
2.46593e-06
2.84634e-06
0.00294334
0.00241008
5.92137e-08
0.00240275
0.000371658
1.73167e-07
3.37973e-07
0.000869502
6.91892e-07
0.000118852
0.106108
0.00366484
0.00461944
0.00462685
0.00396191
0.00879983
0.00787998
0.00699034
0.00284311
1.47936e-06
0.00364152
0.0030977
0.0818841
0.090613
0.00195105
0.00325224
6.75997e-10
0.000579108
2.30621e-09
0.0685891
0.0787579
0.00467398
0.00208904
0.00177834
1.44832e-06
0.000756596
0.000123604
0.000945367
0.0014157
8.31133e-05
0.00401861
1.42672e-07
0.00506305
2.87775e-08
6.24856e-07
0.00383868
0.000342058
0.0696107
3.55391e-07
0.174898
0.0836844
0.000922826
0.00042829
0.0711383
3.49508e-08
0.00355154
0.00559272
0.00310659
0.00333484
0.0482231
0.00494883
0.122784
0.110704
7.62823e-07
0.00191312
0.000762933
1.58179e-06
8.34754e-07
0.00464815
0.0158909
0.123656
7.08599e-09
0.0469182
1.37423e-08
0.000820252
0.13368
0.132128
0.123988
0.0045128
0.00415403
0.00118685
0.00794879
0.00738519
3.23145e-05
0.133697
0.144544
0
0.000238367
0.0337248
0.00545493
1.64462e-05
0.000102231
0.168634
8.05742e-05
0.018102
0.184246
0.187157
0.0291305
0.176951
1.54714e-06
0.0836424
0.00756776
0.0250576
0.152121
2.71576e-05
0.151698
9.62674e-05
5.51186e-06
2.0159e-09
0.00306952
6.57432e-05
0.145882
6.24724e-05
0.000169474
0.0323948
0.000141516
0
1.46252e-10
0
0.000325775
7.61352e-05
1.60366e-10
0.101019
0
0.0729328
6.42101e-05
6.44097e-05
0
0.000305326
0.0409434
0.0506938
0.000626072
0
0
0.0812508
0.0891106
0.0775162
0.0292061
0.043202
7.14741e-10
2.40827e-10
0.047789
0.0531228
0.00363878
0.0382042
0.00297932
1.91494e-07
1.97727e-10
8.44195e-05
0.00255723
8.93371e-05
5.57277e-05
0.0728429
0.000508156
0.000237477
0.0589307
0.0466663
0.0459086
3.20498e-10
4.76228e-05
0.130422
5.97551e-05
6.02662e-05
0.00012292
0.0059149
0.000170371
7.46508e-05
3.31689e-05
0.000338994
0.0204
0.00010878
0.0200633
0.015121
0.0130354
1.95983e-08
0.0409676
0.0476512
0.0515708
0.0906228
0.00220678
0.0769063
0.00121531
0.00062206
0.062405
0.0279149
3.95967e-05
0.0365723
0.000211203
0.0367899
0.0222458
2.83621e-10
0.00181179
9.70413e-08
0.00157407
4.43738e-05
8.40338e-05
0.00342447
0.000887136
0.0157427
0.106805
2.37219e-08
1.10026e-08
1.27871e-05
0.0198323
0.0198314
0
0.000643211
4.66685e-08
0
4.40128e-09
0.057269
0.000200692
8.73375e-05
0
0.0439487
4.63203e-05
0
0.0583511
0.0106299
0.0152737
0.000765158
0.0170796
0.012227
0.0969366
0.0165691
0.000152016
0.000404779
0.105216
0.0156601
0.000189145
0.112563
0.117811
1.7193e-05
0.00253767
0.000571805
1.90225e-10
0.0765572
0.0650808
0.00383769
0.00229337
0.0574049
0.0229508
0.0102442
5.11626e-10
0.0599008
0.000340815
0.12583
0.0210906
0.10368
0.0180236
0.107004
0.00908364
0.00200128
0.0168955
0.00027544
0.00254429
0.102611
0.00504994
0.0112412
0.000324419
0.000258392
0.136907
0.00583415
0.0653113
0.000321069
0.0607812
0.0115552
0.0014786
0.000718325
0.0803017
0.00693118
1.6944e-08
0.00188135
2.36642e-07
4.33651e-08
1.89156e-07
0.00214433
7.25038e-08
0.106123
0.00332484
0.034238
0.00335025
0.000573355
0.0342941
0.0720143
0.000568538
9.82463e-07
8.52989e-08
3.67021e-06
0.0284328
0
2.47365e-10
2.78767e-10
0.000130447
0.00513477
0.0040056
0.00593514
0.0313546
0.0268351
0.000512724
0.000161748
0.157619
0.000125703
0.000258523
0.00264588
0.0117803
0.000269646
7.87884e-05
3.48069e-07
0.000102086
0.000879596
0.0809465
0.178085
0.00268914
0.155401
6.99042e-05
3.08241e-05
3.28909e-05
7.985e-05
0.0145263
0.00238857
0.00122904
0
0.0213876
0.00359183
0
0.00928345
0.0633175
2.09363e-05
0.00406609
9.92106e-05
0.000529552
0
2.82661e-05
0.00992066
0.0159685
1.48706e-10
0.0343862
5.20477e-07
0.00111328
0.00506163
0.00512791
0.0330657
0
1.58364e-06
2.13219e-05
0.0214031
0.0450056
0.00247325
6.94536e-07
0.0307389
0.113911
6.78683e-06
0.000603398
0.0398738
0.0429629
0.00124907
3.23623e-07
0.0279429
0.0261329
0
0.00791616
7.68261e-10
4.67867e-05
2.69088e-05
0
0.000208914
1.37346e-10
0.0440467
0.188082
0.0352802
5.97961e-08
0.125655
2.89553e-06
0.0219617
0.0101295
0.00010404
4.01045e-05
0.0302667
0.00355773
8.26606e-07
0.136291
3.6063e-07
0.00302464
0.0132242
0.0330704
0.17654
9.72664e-05
0.0300163
0.000115869
0.0107455
0.0155345
3.80871e-06
7.41292e-07
0.00239802
1.90736e-07
9.41514e-06
2.1074e-07
0.00248018
3.17475e-08
0.0571381
9.44195e-05
0.0294198
0.0428435
0.00020515
2.37182e-05
1.52438e-06
3.53514e-05
0.00176952
0.000358156
0.0670261
0.0604412
0.00244356
0.0295421
0.000173384
0.0512153
0.0888167
0.0723577
0.0211434
0.0517602
0.000149823
0.00508835
0.101078
0.0153054
0.0605286
0.0187363
1.77083e-10
0.121706
0.0633288
1.8584e-09
0.0249482
3.66555e-06
0.0116475
0.00122738
2.18597e-09
0.000160969
0.0576016
0.0550979
4.91256e-05
0.000300602
0.00924858
0.0226619
0
0.0589942
0.0114701
0.037138
7.94166e-05
0.000534555
3.278e-09
0.00188278
0.00107565
1.73061e-10
0.0153047
0
0.0161781
0.170651
2.85152e-06
0.0289655
0
0.168546
0.000720839
0.000243013
0.152434
0.00042525
0
0.00012775
0.00313875
0.00662074
1.00854e-07
3.5328e-09
1.58604e-06
1.2235e-05
9.90326e-05
0.107586
2.29963e-09
3.74111e-06
0.132949
0.129147
1.86067e-06
0.109525
0.0440127
0.142816
0.115565
0.00832343
0.0192777
0.072807
0.00557885
0.0285733
0.157885
7.37223e-06
0.00814064
0.00100767
5.33717e-06
0.171532
0.00247793
0.00361253
0.0140839
5.97271e-05
0.0123155
0.00167852
0.00260663
3.55428e-07
2.23989e-05
0.166914
0.0049599
0.000166189
0.024859
0.000283206
0.022158
0
0.00494761
0.0143862
0
0.0227344
0.000581121
0.169977
0.120753
0.00130092
0.00761538
9.41399e-06
0.157913
6.13376e-06
2.52764e-06
0.0038202
0.00197419
2.76147e-09
0.00718528
0.00173836
0.0229562
0.0199083
1.31416e-10
0.000245076
0.0893629
1.36191e-09
0
0.00469333
1.05873e-08
3.67711e-06
3.09405e-07
0.00257767
0.0150573
0.0840076
1.09016e-09
1.11705e-10
0.0616789
0
0
0.000353315
0
0.00686627
8.34453e-10
0
8.8414e-05
0.0329879
0.0474237
0.000192399
1.14215e-08
0
0.160148
0.159485
0.00434189
0.113181
0.123648
0.00568381
7.24708e-09
1.00094e-06
0.00527718
0.00192293
2.07561e-08
2.23745e-08
1.25031e-07
0.00716729
0.00341539
0.000561263
0.00168969
7.01577e-09
2.30111e-06
1.30648e-08
2.74137e-07
4.32477e-09
0.0200116
0.000359359
8.33233e-10
0.00123603
0.0363533
0.0025869
0.00382287
0.00629281
0.0729821
0.0020362
0
0.00377874
3.1472e-09
0.0693193
1.64188e-10
0.000531053
0.029118
0.00118242
4.62863e-06
0.0568099
3.47996e-05
0
0.115652
0.00429268
0.00226784
0.0479359
0.000675616
0.0297541
0.00459439
0.000197091
0.000474374
0.0538781
0.0506315
0.020855
3.93343e-05
0.0477867
0.000303681
0
0
1.61003e-05
0.0104689
0.18137
0.186302
0.0166423
0.0134033
0.000200381
0
0.0264794
0.0179066
0.0952461
0
0.0689889
0.00486521
0.0107367
1.03756e-05
0.169491
0.0050398
0.0731365
0.00123295
0
0.0591033
0.00035278
0.0764897
0.161394
0.00039525
0.00277896
4.96458e-06
5.0873e-06
1.03036e-09
0.000423539
0.0355757
0.00111887
0.0019844
1.09934e-06
3.55446e-09
0.000296103
5.53482e-05
0.00217728
0.125475
0.131658
0.135393
0.0883121
0.00185429
1.17396e-09
0.0132443
0.0949134
0
6.99831e-05
0.0138837
0.0190817
0.000151368
2.60265e-07
0.0802151
0.0131912
0.1782
9.38636e-06
0.000698009
1.88481e-06
1.5468e-06
0.00138353
0.0553681
2.89092e-08
0.0882094
0.165529
0.00640343
0.00382959
0.0799252
0.107755
0
0.0387684
0.162119
0.168736
7.74347e-05
0.122255
0.158452
0.00356442
0.082506
0.0020558
6.20154e-07
0.0127571
8.54263e-06
0.00539094
0.0817609
0.0472118
0.000290738
0.0679352
0.00954292
0.00520317
0.167244
0.175772
0.00694604
0.0666139
0.00568515
0.0274731
0.0794305
0.0859788
0.00675857
1.24997e-09
0.076002
5.39627e-06
0.00150285
1.1017e-06
0.00115741
0.00087742
0.00206901
2.0841e-05
0.155425
9.79124e-10
0.04445
0.160404
0.0543865
0.0383061
0.160569
0.0449354
0.00013722
0.00969355
2.28995e-08
0.0731334
0.171256
0.000313884
0.00815677
0.0366384
0.0422622
1.13995e-07
0.0137216
0.0306866
0.000182166
0.0108566
0.000450967
1.66072e-10
0.000986534
0.000263347
5.16818e-05
0.00527875
0.00547826
0.00427756
0.000414913
0.000642303
0.021911
0.0202268
0.00628602
8.32528e-06
0.171428
0.0066021
0.0821956
0.00630087
0.0257672
0.0432092
0.000664529
0.000262491
0.132584
0.00304801
0.0138933
0.000143835
0.0776627
9.1175e-07
0.012284
0.0682568
0.158397
5.31025e-10
0.00191599
0.136825
0.000674976
0.00149372
2.55828e-09
0.0039743
0.00172022
0.135279
3.74542e-06
0.113109
0.00589026
1.79395e-05
0.0117231
0.0188427
4.18898e-05
0.00756688
3.72098e-05
0.00625757
0.145026
3.1487e-06
6.54488e-05
0.00732492
0.00301592
2.54668e-06
0.00567129
0.0128134
1.17068e-05
0.00678236
4.55405e-05
6.53684e-05
0.0108771
0.000957664
0.00725165
0.00742139
0
0
0.00044214
0.0146877
0.00922238
4.41373e-10
0.00718002
0.00915828
0.00025044
4.25701e-07
5.89993e-05
0.00172685
0.000367759
0.0240364
0.000131396
0.00778436
2.46379e-05
3.78645e-05
0
7.68798e-05
0
1.79106e-10
0.0650266
0.144037
0.000446926
0
0.0169198
0.000655071
0.000211563
0.00101
4.64302e-08
0.0129336
0.0406899
0.00379952
0.114552
0.00322712
0.000622206
0.000859817
1.28349e-07
0.0102767
1.48292e-05
6.66088e-06
0.00567208
0.00467641
0.000962381
0.00380368
7.24865e-05
0.0101832
0.00898191
0.034138
6.01885e-08
0.00718506
0.0101789
0.00886019
0.122614
0.00494097
0.00699916
0.0475523
0.135389
0.0820953
0.0256726
0.000322222
0.00100822
0.00321667
0.0183661
0.114725
5.68593e-06
0.0310554
0.189667
0.0455126
0.125412
5.05252e-06
1.31377e-06
0.00501132
0.124592
0.0185096
0.00953515
0.120202
0.00819991
0.0064352
0.10333
0.00998451
0.172581
0.0244199
0.048314
0.00738537
2.92961e-09
0.0060327
0.00503017
0.113994
0
0.106288
0.000114972
0.0458152
0.000514201
0.014091
0.000100142
3.76639e-08
0.00144959
0.000125522
0.0308926
0.05801
9.83975e-05
0.00363834
0.000273209
0.1449
0.0010158
2.31546e-06
1.71634e-05
5.2629e-05
0.151477
0.145302
0.00682494
0.000929375
0.000455776
0.0856302
0.00417877
0.00663669
0.0969085
0.10221
2.38705e-06
0.0157665
0.179761
0.00031326
0.0565158
0.0964614
0.141599
0.0113268
3.32028e-08
3.48561e-06
0.100293
0.00601535
0.00426592
0.0912946
0.00725097
0.000177765
0.0678671
0.00863562
0.008135
0.100347
0.104264
5.69795e-06
0.00829278
0.000492073
0.0899025
5.70916e-06
0.00655679
8.96976e-07
9.76908e-05
4.91108e-07
0.00385784
0.0015513
0.00252309
0.000604951
0.0681109
0.125673
0.00574328
0.0438267
4.0534e-07
0.00372692
0.0044532
2.1458e-08
1.81312e-07
0.00211545
0.0317883
7.45068e-08
0.105951
1.91843e-05
0
0
0.181051
2.32229e-06
0
0.00629673
0.00943621
3.48792e-05
0.0526847
0.000290844
0
0.00250586
0.000267328
0.000400033
0.00159653
7.76141e-05
0.0938642
4.84811e-05
0
0
0.0884761
0.00210825
6.26073e-05
1.64133e-05
0.119611
0
0.000422756
1.03299e-10
0.190737
0.000363355
2.8375e-05
0.188391
0.0524011
2.66752e-10
0
0.00681099
0.00703104
1.77257e-05
0.0161972
0.000512562
6.56629e-08
0.0929793
0.0866859
0.0938276
0.0930075
0.097709
0.00365055
0.00128277
0.100998
0.0863012
2.05388e-06
2.0988e-05
0.000233527
0.0770724
0.00042278
0.000214601
0.093538
1.84892e-05
0.00384181
0.155693
0.0498086
0.00219268
7.73105e-08
3.10637e-07
0.0255999
0.000469783
7.17331e-10
0.00441833
0.00513238
0.0341826
0.00233083
0.00872927
0.031732
0.164735
0.00444297
0.0249057
1.02964e-10
1.79565e-10
0.00378507
4.89011e-10
0.0148201
0.000526818
5.08845e-05
8.75845e-07
0.00357447
0.0653728
0.0545553
7.95564e-06
1.24174e-05
1.04262e-05
1.32302e-05
0.0228339
6.23973e-06
0.0202865
0.00643323
0.0327006
1.11208e-06
0.0411592
7.53561e-06
0.0281293
9.82751e-06
1.86509e-06
9.63951e-06
0.00901533
0.138244
1.17611e-05
0.0353527
9.32983e-05
0.0303528
0.0406344
4.73417e-06
0.000118982
0.0627388
0.115544
0.00440837
0.0390865
1.80855e-05
0.179663
0.00305229
0.0186928
7.37378e-05
3.32084e-05
0.0125261
0.128182
0.000255703
0
0
2.71219e-05
0.000487245
8.68355e-05
0.0301602
0.0377432
0.0353165
3.56662e-07
0.000888787
0.003276
0.00384353
0.0818352
0
0.0751272
2.99724e-10
0.00182681
0.0666593
5.07567e-05
0
2.70642e-05
2.10898e-06
0.0219175
0.0223757
0.0334139
0
0
0.0570533
0.000268544
0.000568385
0.0551385
0.000855185
0.111938
6.40379e-08
9.9766e-05
0.00568057
0.00135017
0.0123859
0.00198531
0.0106266
8.75239e-08
4.93093e-07
6.65747e-07