# vtk DataFile Version 2.0
Unstructured Grid by M++
ASCII
DATASET UNSTRUCTURED_GRID
POINTS 4072 float
  0.609375   0.843750 0
  0.562500   0.843750 0
  0.531250   0.843750 0
  0.875000   0.828125 0
  0.984375   0.828125 0
  0.953125   0.828125 0
  0.937500   0.828125 0
  0.843750   0.828125 0
  0.812500   0.828125 0
  0.781250   0.828125 0
  0.765625   0.828125 0
  0.734375   0.828125 0
  0.703125   0.828125 0
  0.671875   0.828125 0
  0.640625   0.828125 0
  0.609375   0.828125 0
  0.593750   0.828125 0
  0.562500   0.828125 0
  0.546875   0.828125 0
  0.531250   0.828125 0
  0.515625   0.828125 0
  0.968750   0.812500 0
  0.937500   0.812500 0
  0.921875   0.812500 0
  0.890625   0.812500 0
  0.859375   0.812500 0
  0.828125   0.812500 0
  0.796875   0.812500 0
  0.765625   0.812500 0
  0.750000   0.812500 0
  0.718750   0.812500 0
  0.687500   0.812500 0
  0.656250   0.812500 0
  0.625000   0.812500 0
  0.593750   0.812500 0
  0.578125   0.812500 0
  0.546875   0.812500 0
  0.531250   0.812500 0
  0.515625   0.812500 0
  0.984375   0.796875 0
  0.562500   0.015625 0
  0.953125   0.796875 0
  0.921875   0.796875 0
  0.906250   0.796875 0
  0.875000   0.796875 0
  0.843750   0.796875 0
  0.812500   0.796875 0
  0.781250   0.796875 0
  0.750000   0.796875 0
  0.734375   0.796875 0
  0.703125   0.796875 0
  0.671875   0.796875 0
  0.640625   0.796875 0
  0.609375   0.796875 0
  0.578125   0.796875 0
  0.562500   0.796875 0
  0.531250   0.796875 0
  0.515625   0.796875 0
  0.968750   0.781250 0
  0.546875   0.000000 0
  0.937500   0.781250 0
  0.906250   0.781250 0
  0.890625   0.781250 0
  0.859375   0.781250 0
  0.828125   0.781250 0
  0.796875   0.781250 0
  0.765625   0.781250 0
  0.734375   0.781250 0
  0.718750   0.781250 0
  0.687500   0.781250 0
  0.656250   0.781250 0
  0.625000   0.781250 0
  0.593750   0.781250 0
  0.562500   0.781250 0
  0.546875   0.781250 0
  0.515625   0.781250 0
  0.984375   0.765625 0
  0.953125   0.765625 0
  0.921875   0.765625 0
  0.890625   0.765625 0
  0.875000   0.765625 0
  0.843750   0.765625 0
  0.812500   0.765625 0
  0.781250   0.765625 0
  0.750000   0.765625 0
  0.718750   0.765625 0
  0.703125   0.765625 0
  0.671875   0.765625 0
  0.640625   0.765625 0
  0.609375   0.765625 0
  0.578125   0.765625 0
  0.593750   0.750000 0
  0.562500   0.765625 0
  0.546875   0.765625 0
  0.531250   0.765625 0
  0.562500   0.750000 0
  0.968750   0.750000 0
  0.937500   0.750000 0
  0.906250   0.750000 0
  0.875000   0.750000 0
  0.859375   0.750000 0
  0.828125   0.750000 0
  0.796875   0.750000 0
  0.765625   0.750000 0
  0.734375   0.750000 0
  0.703125   0.750000 0
  0.687500   0.750000 0
  0.671875   0.750000 0
  0.656250   0.750000 0
  0.625000   0.750000 0
  0.546875   0.750000 0
  0.531250   0.750000 0
  0.515625   0.750000 0
  0.562500   0.734375 0
  0.984375   0.734375 0
  0.953125   0.734375 0
  0.921875   0.734375 0
  0.890625   0.734375 0
  0.859375   0.734375 0
  0.843750   0.734375 0
  0.812500   0.734375 0
  0.781250   0.734375 0
  0.750000   0.734375 0
  0.718750   0.734375 0
  0.687500   0.734375 0
  0.671875   0.734375 0
  0.656250   0.734375 0
  0.640625   0.734375 0
  0.546875   0.734375 0
  0.531250   0.734375 0
  0.515625   0.734375 0
  0.562500   0.718750 0
  0.968750   0.718750 0
  0.937500   0.718750 0
  0.906250   0.718750 0
  0.875000   0.718750 0
  0.843750   0.718750 0
  0.796875   0.718750 0
  0.765625   0.718750 0
  0.734375   0.718750 0
  0.703125   0.718750 0
  0.687500   0.718750 0
  0.671875   0.718750 0
  0.656250   0.718750 0
  0.625000   0.718750 0
  0.546875   0.718750 0
  0.531250   0.718750 0
  0.515625   0.718750 0
  0.562500   0.703125 0
  0.953125   0.703125 0
  0.921875   0.703125 0
  0.890625   0.703125 0
  0.859375   0.703125 0
  0.828125   0.703125 0
  0.781250   0.703125 0
  0.750000   0.703125 0
  0.718750   0.703125 0
  0.687500   0.703125 0
  0.656250   0.703125 0
  0.546875   0.703125 0
  0.531250   0.703125 0
  0.515625   0.703125 0
  0.984375   0.687500 0
  0.937500   0.687500 0
  0.921875   0.687500 0
  0.906250   0.687500 0
  0.875000   0.687500 0
  0.843750   0.687500 0
  0.812500   0.687500 0
  0.765625   0.687500 0
  0.734375   0.687500 0
  0.703125   0.687500 0
  0.671875   0.687500 0
  0.640625   0.687500 0
  0.593750   0.687500 0
  0.562500   0.687500 0
  0.546875   0.687500 0
  0.531250   0.687500 0
  0.515625   0.687500 0
  0.968750   0.671875 0
  0.937500   0.671875 0
  0.921875   0.671875 0
  0.906250   0.671875 0
  0.890625   0.671875 0
  0.859375   0.671875 0
  0.828125   0.671875 0
  0.796875   0.671875 0
  0.765625   0.671875 0
  0.750000   0.671875 0
  0.718750   0.671875 0
  0.687500   0.671875 0
  0.656250   0.671875 0
  0.625000   0.671875 0
  0.593750   0.671875 0
  0.578125   0.671875 0
  0.546875   0.671875 0
  0.531250   0.671875 0
  0.515625   0.671875 0
  0.984375   0.656250 0
  0.953125   0.656250 0
  0.937500   0.656250 0
  0.921875   0.656250 0
  0.906250   0.656250 0
  0.875000   0.656250 0
  0.843750   0.656250 0
  0.812500   0.656250 0
  0.781250   0.656250 0
  0.750000   0.656250 0
  0.734375   0.656250 0
  0.703125   0.656250 0
  0.671875   0.656250 0
  0.640625   0.656250 0
  0.609375   0.656250 0
  0.578125   0.656250 0
  0.562500   0.656250 0
  0.531250   0.656250 0
  0.515625   0.656250 0
  0.968750   0.640625 0
  0.937500   0.640625 0
  0.906250   0.640625 0
  0.890625   0.640625 0
  0.859375   0.640625 0
  0.828125   0.640625 0
  0.796875   0.640625 0
  0.765625   0.640625 0
  0.734375   0.640625 0
  0.718750   0.640625 0
  0.687500   0.640625 0
  0.656250   0.640625 0
  0.625000   0.640625 0
  0.593750   0.640625 0
  0.562500   0.640625 0
  0.546875   0.640625 0
  0.515625   0.640625 0
  0.984375   0.625000 0
  0.953125   0.625000 0
  0.921875   0.625000 0
  0.890625   0.625000 0
  0.875000   0.625000 0
  0.843750   0.625000 0
  0.812500   0.625000 0
  0.781250   0.625000 0
  0.750000   0.625000 0
  0.734375   0.625000 0
  0.718750   0.625000 0
  0.703125   0.625000 0
  0.671875   0.625000 0
  0.640625   0.625000 0
  0.609375   0.625000 0
  0.578125   0.625000 0
  0.562500   0.625000 0
  0.546875   0.625000 0
  0.531250   0.625000 0
  0.968750   0.609375 0
  0.937500   0.609375 0
  0.906250   0.609375 0
  0.875000   0.609375 0
  0.859375   0.609375 0
  0.828125   0.609375 0
  0.796875   0.609375 0
  0.765625   0.609375 0
  0.750000   0.609375 0
  0.734375   0.609375 0
  0.718750   0.609375 0
  0.703125   0.609375 0
  0.687500   0.609375 0
  0.656250   0.609375 0
  0.625000   0.609375 0
  0.593750   0.609375 0
  0.562500   0.609375 0
  0.546875   0.609375 0
  0.531250   0.609375 0
  0.515625   0.609375 0
  0.984375   0.593750 0
  0.953125   0.593750 0
  0.921875   0.593750 0
  0.890625   0.593750 0
  0.859375   0.593750 0
  0.843750   0.593750 0
  0.812500   0.593750 0
  0.781250   0.593750 0
  0.750000   0.593750 0
  0.734375   0.593750 0
  0.718750   0.593750 0
  0.687500   0.593750 0
  0.671875   0.593750 0
  0.640625   0.593750 0
  0.609375   0.593750 0
  0.578125   0.593750 0
  0.562500   0.593750 0
  0.546875   0.593750 0
  0.531250   0.593750 0
  0.515625   0.593750 0
  0.968750   0.578125 0
  0.937500   0.578125 0
  0.906250   0.578125 0
  0.875000   0.578125 0
  0.890625   0.562500 0
  0.843750   0.578125 0
  0.828125   0.578125 0
  0.796875   0.578125 0
  0.765625   0.578125 0
  0.734375   0.578125 0
  0.703125   0.578125 0
  0.671875   0.578125 0
  0.656250   0.578125 0
  0.656250   0.562500 0
  0.625000   0.578125 0
  0.640625   0.562500 0
  0.593750   0.578125 0
  0.562500   0.578125 0
  0.546875   0.578125 0
  0.531250   0.578125 0
  0.515625   0.578125 0
  0.859375   0.562500 0
  0.828125   0.562500 0
  0.781250   0.562500 0
  0.750000   0.562500 0
  0.718750   0.562500 0
  0.687500   0.562500 0
  0.609375   0.562500 0
  0.578125   0.562500 0
  0.562500   0.562500 0
  0.546875   0.562500 0
  0.531250   0.562500 0
  0.515625   0.562500 0
  1.000000   0.812500 0
  0.578125   0.031250 0
  0.875000   0.546875 0
  0.625000   0.546875 0
  0.218750   0.000000 0
  0.640625   0.781250 0
  0.828125   0.093750 0
  0.031250   0.531250 0
  0.296875   0.328125 0
  0.296875   0.312500 0
  0.281250   0.312500 0
  0.765625   0.312500 0
  0.031250   0.859375 0
  0.093750   0.265625 0
  0.109375   0.250000 0
  0.187500   0.671875 0
  0.421875   0.640625 0
  0.031250   0.062500 0
  0.140625   0.125000 0
  0.562500   0.906250 0
  0.125000   0.437500 0
  0.203125   0.937500 0
  0.125000   0.421875 0
  0.140625   0.406250 0
  0.093750   0.437500 0
  0.109375   0.421875 0
  0.093750   0.421875 0
  0.109375   0.406250 0
  0.328125   0.125000 0
  0.750000   0.906250 0
  0.328125   0.109375 0
  0.750000   0.890625 0
  0.312500   0.125000 0
  0.734375   0.906250 0
  0.281250   0.343750 0
  0.265625   0.359375 0
  0.500000   0.796875 0
  0.078125   0.015625 0
  0.062500   0.015625 0
  0.484375   0.796875 0
  0.484375   0.781250 0
  0.062500   0.000000 0
  0.015625   0.250000 0
  0.062500   0.046875 0
  0.484375   0.828125 0
  0.484375   0.812500 0
  0.062500   0.031250 0
  0.281250   0.671875 0
  0.062500   0.234375 0
  0.328125   0.765625 0
  0.312500   0.750000 0
  0.015625   0.671875 0
  0.781250   0.187500 0
  0.015625   0.265625 0
  0.453125   0.250000 0
  0.453125   0.234375 0
  0.031250   0.265625 0
  0.046875   0.250000 0
  0.093750   0.015625 0
  0.265625   0.656250 0
  0.734375   0.281250 0
  0.156250   0.015625 0
  0.062500   0.265625 0
  0.046875   0.281250 0
  0.031250   0.281250 0
  0.343750   0.781250 0
  0.328125   0.781250 0
  0.265625   0.687500 0
  0.265625   0.703125 0
  0.156250   0.109375 0
  0.578125   0.890625 0
  0.484375   0.984375 0
  0.062500   0.203125 0
  0.328125   0.718750 0
  0.343750   0.734375 0
  0.343750   0.750000 0
  0.453125   0.500000 0
  0.437500   0.500000 0
  0.234375   0.093750 0
  0.171875   0.375000 0
  0.437500   0.531250 0
  0.468750   0.546875 0
  0.453125   0.546875 0
  0.187500   0.015625 0
  0.187500   0.000000 0
  0.609375   0.781250 0
[...]
CELL_DATA 7648
SCALARS scalar_value float 1
LOOKUP_TABLE default
7.19569e-05
7.9088e-05
9.4645e-05
6.98866e-05
0.0326977
0.0352825
0.0385465
0.0355929
7.51573e-05
9.0425e-05
9.75192e-05
0.0144715
0.0164428
0.0125485
1.22239e-05
1.03999e-05
1.10821e-05
8.08681e-06
2.19063e-08
2.12879e-08
2.64664e-08
1.80396e-08
1.4739e-08
1.78717e-09
1.97437e-09
2.88857e-09
1.5568e-09
0.000324101
0.000356776
4.31965e-10
5.49131e-10
7.36814e-10
4.44227e-10
1.23453e-09
1.56858e-09
2.04336e-09
1.34921e-09
4.9876e-10
6.72734e-10
8.94771e-10
0
2.01867e-10
0.000164584
0.000240351
0.000253837
0.00334496
0.00399323
0.004733
2.35238e-09
0.0049036
0.0199041
3.16311e-08
2.98232e-09
4.05866e-09
0.000194951
2.62633e-09
0.000266363
0.000152687
6.55262e-10
9.64063e-10
1.41474e-09
9.20393e-09
7.68454e-09
0.00037914
0.000303425
0
0
2.15019e-09
3.45382e-06
0
1.0828e-06
0
1.15234e-05
2.29732e-05
0.000343881
0
0.000194091
0
0.000354064
4.71564e-05
6.59531e-05
0
0
0
0.0084356
1.74294e-09
6.68039e-07
6.01793e-07
0.000713055
0
0
0
3.71271e-08
5.31158e-08
0
1.29652e-09
0.000447201
2.04903e-09
0.000558972
0.000717494
3.34299e-05
9.73069e-09
3.81192e-05
7.29638e-05
2.16057e-08
1.09749e-06
9.81011e-06
0.00759734
0.00782252
0
9.70411e-10
1.65691e-05
1.66436e-05
0
6.28768e-08
0
8.40153e-08
4.37865e-08
1.66993e-09
0.0298782
0.0323092
0
0
1.43865e-07
0
0
0
0.00139222
0.00178312
0.00116196
0
0.000941653
0
0.0065874
2.31039e-06
0.00673585
0.000240778
5.18666e-09
1.07816e-09
0.00304861
0.000448161
0.00352973
0.00388085
4.64962e-10
0.00386889
0.00378041
0.0347741
3.59013e-08
0.0216485
0.000434274
0.000420905
3.68509e-09
4.87742e-09
6.27672e-09
0.00957467
0.00755391
0.0156711
6.96181e-10
0.0060299
3.85918e-09
0
2.3378e-08
2.74421e-08
7.91617e-06
0.0034519
0.00431596
5.48477e-10
0.0030097
7.6968e-09
0.0605432
0
0.00300383
0.005177
0.00374152
1.37145e-05
1.40127e-07
0.0342284
0.0015814
2.58884e-06
0.00188428
0.00238762
3.72101e-06
0.0098807
0.00027223
0
5.18284e-08
0.0197873
0
0
0.000449292
0
0.000553954
0.00107142
0
1.53127e-10
0.00125061
0.00147999
0.00127925
0
0
0
0.0104114
6.30835e-08
0.0232075
0.0222922
6.08141e-08
5.098e-09
0.00784149
0.00945222
0.00729286
3.45479e-10
5.4637e-10
8.13185e-10
4.91449e-10
0.00205522
9.99183e-08
0
0.0755612
0
0.00012389
0.00027373
0.00246579
0.00303164
1.82554e-10
0.00243935
0
3.71203e-05
0.000105716
0.00199794
0.0016388
0.0313557
0.0260653
0.000968071
1.07645e-06
0.0328668
0.0355379
0.0374267
0.0366533
0.000687099
0
0.000586711
0.00777392
8.8814e-07
0.000464764
0.000543764
0.00184963
3.56056e-06
0.00164055
0.00200657
0
0.00159575
0.000212019
5.04287e-09
6.90058e-09
6.77717e-09
0.000201678
4.30329e-07
0.000933401
0.0011585
1.71349e-08
2.16274e-08
2.17134e-08
0.0015181
4.78977e-10
1.41513e-10
0.00158171
5.13219e-10
0.00357749
3.73022e-10
0.00103805
0.00874162
2.11853e-08
0
0.0267506
0.00633095
0
0.0662207
0.000894424
5.42783e-07
6.75116e-07
0
0.000128506
0.000571388
0.0110886
1.37598e-06
0.00218829
0.0116521
0
0
0.00111395
0
0.00897642
6.64027e-05
0
7.36715e-07
7.47561e-07
0
9.31689e-07
0
0.000278525
5.06166e-08
2.03908e-06
0.0204392
0.00049293
1.16468e-08
9.45352e-09
8.53517e-09
7.74343e-08
0.000891032
2.29354e-07
1.61941e-07
0.00127147
0.010748
0
0.00161828
2.99495e-05
8.30697e-08
0.00142874
6.39255e-08
1.70496e-05
4.46026e-08
7.85999e-09
9.42517e-05
0.000432369
0.000912004
5.24587e-07
1.03318e-07
0.000451791
0.000649493
2.33762e-07
0.000631411
3.27652e-09
0.00360342
5.67882e-05
0.0220502
5.15796e-05
0.0218945
0.0196293
0.0174163
2.85363e-08
0.00021181
0.0256703
0.0239618
0
0.023836
2.40624e-05
3.47162e-05
0.0159538
0
0
0
0
2.28299e-08
0.00156486
0
0.00124011
0
0.0324873
0.0292096
0.0292866
6.99034e-07
5.46761e-07
5.72339e-07
4.25845e-06
0.000673274
0.00138062
0.000815913
0
0
0
0.000638358
3.27534e-06
0
0.000893129
0
0.0014726
0.00447306
0
3.62282e-05
9.3021e-09
5.35244e-07
0.00161373
1.11782e-06
4.65404e-05
0.0024151
8.15101e-06
0.00254611
1.9526e-06
1.46467e-10
0.00745561
0.00690512
7.59184e-06
0.0109155
0.0105241
0.00869055
3.42297e-09
3.08285e-09
0.0216382
0.00177952
1.0032e-05
8.54163e-10
0.00852424
0.000645947
2.26436e-05
0.000865618
6.06625e-06
0
0.000413243
0.0122206
2.55796e-09
0.0101414
0.000583624
0.000355904
0.00471843
2.2507e-06
9.80264e-05
0
9.71484e-05
0
2.22281e-06
0.000319976
3.70657e-06
0.009616
8.52445e-09
1.82629e-08
1.61833e-08
0.0347217
1.65629e-08
0.000717475
8.88836e-10
0.000491357
7.31916e-08
6.75406e-10
0
7.4915e-10
4.32219e-10
1.58516e-10
0
0.0171802
0.000322023
1.67478e-07
0.000224141
1.35182e-08
1.32217e-08
0.00123773
1.77803e-08
0.00126193
0.00106967
0.000244833
0.000386726
0.0285253
9.24142e-08
6.28815e-10
6.42377e-08
0.000290613
9.44158e-10
1.21795e-09
1.03795e-09
0.000260033
0.00160736
0.0136506
4.78699e-08
0.000132378
0.000122466
0
4.77994e-10
3.93468e-10
0
0
0
0.00140809
0
7.11446e-07
0
0
6.90086e-07
1.11611e-08
6.34978e-05
0
0.000358005
0
3.73779e-07
0
0
0.000641001
0.000847535
0.00110142
0.000700316
1.18184e-07
1.92794e-07
0
9.93939e-08
0
5.46454e-07
0.000266773
0
7.27769e-08
0.0269227
3.67012e-05
6.36004e-10
4.74632e-10
0.00105609
8.94854e-06
7.85389e-10
5.832e-10
0.00531215
1.54069e-09
1.19785e-09
1.14535e-09
8.92396e-10
0.0245424
0.000335469
1.25697e-09
0
0.000452054
2.64634e-10
0.00125707
1.14233e-09
2.59866e-10
0.00152141
9.09997e-10
0.00421268
6.74889e-10
1.12992e-09
0.000632139
4.10236e-06
0.0609499
0.00243235
4.15181e-06
2.93375e-06
0.00190783
1.89516e-10
0.0181313
2.62355e-10
1.26835e-05
0.0211759
2.24956e-05
0.0169578
9.934e-06
3.40588e-05
1.44951e-05
4.1901e-05
5.60827e-10
6.06091e-10
0.0135611
2.51162e-06
0.0031864
3.04146e-06
0.000561136
3.88063e-06
2.81058e-06
0.0520773
4.47539e-06
3.78621e-06
2.62627e-05
2.80713e-05
3.74897e-05
0.00529729
1.85764e-09
9.16763e-10
0.00492204
1.47277e-10
0
2.51548e-10
9.16749e-05
2.74603e-06
2.50514e-08
0.000104423
8.90986e-05
0.000148843
1.10065e-08
0.000800797
3.22749e-06
0.00193311
2.50434e-10
1.6145e-06
0.0118134
1.15756e-10
0.00269771
2.95666e-08
1.65766e-05
1.59417e-05
0
1.02939e-10
0.00083691
0
3.04269e-05
0.00299959
1.12302e-10
0.00673439
0.00814634
0
7.19133e-10
6.36436e-10
0.0408517
1.30687e-09
4.41421e-06
0.000752244
3.74388e-10
0.00130721
5.52922e-10
3.56062e-10
2.78558e-10
2.29455e-10
0.000729262
0.00688978
2.82389e-10
0.0199393
2.88054e-06
0.046949
0.0474098
0.0496454
0.00155697
0.00136417
0.00146578
1.72438e-08
0.00590076
1.43684e-08
8.14711e-10
2.45093e-10
0.00142405
3.65986e-10
4.68866e-10
4.18963e-10
0.0111034
5.33007e-10
3.55539e-10
1.67094e-10
2.40888e-10
2.05721e-10
3.24097e-10
0.0011326
1.33056e-10
1.6844e-10
0.0437963
4.70001e-07
0.0494932
0.000904583
5.34311e-06
4.57684e-06
0.0126053
0.00911362
1.78699e-05
0.0261174
0.00140763
0.00225566
0.00929342
0
0
0
8.39379e-07
0.00159514
0.00184258
0
0
1.26566e-06
0
9.8391e-07
3.52142e-06
6.59557e-07
0.00016842
0.000221445
4.98322e-07
5.78369e-10
8.78872e-09
0.0134884
5.97425e-10
9.8787e-09
0
0
0
2.68415e-09
0.0320487
7.87043e-10
0.0297183
7.73085e-08
3.11232e-05
3.38238e-05
4.53126e-05
0.00609586
0.00642288
0.00679901
0.000125978
0
1.19502e-05
0.00287639
0.00669717
0.00282563
1.2307e-10
0.00461967
0.00331865
0.0036997
3.1945e-10
1.98778e-05
0.00350989
0.00452865
3.10454e-05
1.08353e-08
0.00723799
0.00145247
0.00116306
0.00174805
0.00040339
5.83739e-07
0.00024799
2.55849e-07
0.000180897
0.00023345
0.0139547
0.0157352
0.027671
0.0302479
0.0317719
0.000576022
0.000367775
0.0223288
0.0244916
7.06113e-08
4.4364e-07
0.0236585
0.0270975
0.000206235
0.000226716
0.00018764
0.016305
0.0180938
0.0013573
0.0203893
9.91421e-05
0.0001172
0.000147215
0.0114622
0.0128486
0.0146535
5.40356e-09
3.3008e-09
1.34588e-05
0.00889358
0.0084779
0.0102274
0.00121398
0.00942836
0.0117041
0.0113272
1.69635e-09
4.78598e-05
5.96919e-07
6.43602e-05
0.000102938
1.05618e-08
0.00635393
0.0074279
0.00868129
1.16362e-10
2.83323e-10
1.60099e-10
1.84173e-10
0.000100575
7.1818e-05
0
0.00184237
2.19798e-07
0
0
3.1551e-06
0
0.00557984
0.0116524
3.44935e-06
1.34739e-06
1.49261e-06
1.14543e-06
1.96832e-06
1.71273e-06
1.45376e-06
2.64779e-06
6.20277e-10
3.8568e-06
3.83258e-06
0.000116097
0.000158562
3.82027e-07
6.96206e-07
0
0.0026684
0
7.328e-05
9.25936e-05
0.0038483
1.41251e-06
1.27674e-06
0
1.09324e-07
1.17918e-08
0.00182552
2.3981e-07
5.9288e-09
0.000462473
0
0.000727376
0
0
0.000589006
4.81331e-08
7.71461e-05
0
0.0010136
0.000130261
1.71199e-07
6.73673e-08
9.3648e-05
0
8.978e-07
0.000250142
7.92305e-07
8.87524e-07
0.00014349
9.42202e-07
0.00223811
0.00248929
1.81188e-10
0.00046653
0.00159896
1.19432e-10
0
0.0441142
0.0020544
0.000802236
0
0.000830835
0
5.31359e-07
0.00146137
0.00154136
0.00123747
8.19595e-07
7.35256e-07
0.0132843
0.000576719
0.000462081
2.29478e-09
0.000258043
0.000318904
0
8.12153e-08
0.0265245
0.000459037
1.12017e-09
1.08052e-08
0.00490481
0.00456861
7.40552e-06
0.00203949
0.00227546
1.55342e-05
0.00231193
1.3722e-10
0.000291886
1.56664e-06
2.03325e-05
0.00300973
2.848e-09
0.00347443
0.00730462
4.22283e-10
0
0.00523156
4.65231e-09
0.00213716
1.78554e-08
4.40588e-08
0.000177947
4.01018e-08
0
0
0
4.03043e-08
1.97666e-08
0
0.000709546
0
0.000286488
1.33693e-08
1.5629e-08
0
8.94067e-08
0.000280644
0.000436763
1.97026e-07
0
0
8.01478e-05
9.78177e-05
7.42127e-05
0.0146834
0.000101369
0
0
8.72828e-05
0.000119796
6.39656e-07
7.22941e-05
0.000478943
0
0
6.11878e-09
0.000773538
6.73325e-09
4.05929e-09
0.000123541
8.7929e-08
3.63333e-08
8.60987e-05
0.00819619
0.0104541
0
4.15625e-09
0.00797107
5.31702e-09
5.14266e-09
8.70241e-09
0.0353402
1.82827e-07
5.19181e-09
2.26708e-09
2.56255e-07
0.000895542
7.65363e-09
0.00107299
0.000742355
0.0212836
0
0.000244165
0.000294262
0.000387661
0.00062284
6.11588e-07
0.000400351
3.08318e-07
1.44515e-07
0.000254526
0.000208108
1.25805e-08
0.000157186
5.5771e-08
0.000178849
0.015849
0
1.72693e-05
0
1.1412e-05
3.00727e-09
5.75858e-09
2.61201e-05
1.50694e-07
1.25535e-05
0.000430282
0
0
7.99662e-10
0.0164246
0.0198455
0
0.00177766
0
0
0
6.6228e-05
2.7576e-08
0.00411715
0
0.0095262
1.5815e-08
0
0.000166486
0.00088827
0.0535155
0.0254717
0.051431
0.0593848
0.0027423
0.0501322
0.00708256
6.7079e-08
0.0130265
0.00283122
2.80117e-08
0.0112529
0.0112646
1.19346e-09
0.000225359
4.84036e-08
0
9.71937e-05
0.00154429
2.16014e-06
1.13128e-06
0.00119761
0.0433858
8.59424e-06
0
0.000895577
5.11295e-08
0.0100095
0.0407249
0.00205613
0.0459794
0.00314845
6.36617e-06
0.000172645
0.0451881
0.00587636
0.000106586
0.00168456
2.02412e-06
3.18348e-06
0.00504053
1.84998e-08
0.000262414
1.25265e-06
9.01334e-05
4.94603e-08
0.0190572
0.000183979
2.90464e-07
1.19652e-07
9.87738e-05
0.00291335
0
0.0364398
0
0
0
0.000140795
0
0.000137111
5.93322e-07
8.24858e-05
0.0413444
3.18375e-07
0.00123497
0.000161811
1.07433e-07
3.2086e-10
0
7.62338e-10
3.92027e-05
0
0
0
9.20652e-09
0.038091
9.09539e-07
0.0606872
0.00906159
0.0164804
1.56157e-07
1.67027e-08
0.00577923
0.00472563
1.85157e-08
0.0428744
0.0234265
1.97089e-07
7.44884e-09
0
8.28988e-09
1.16302e-07
8.98528e-05
0.00386302
0.0380961
0.00571743
4.77213e-09
5.27817e-09
6.51361e-09
5.51958e-09
0.00163956
0.0399374
0.00102832
0
0.0018022
0.0465493
0
5.62134e-06
0.0143047
1.36353e-09
0.0444459
0.00424584
0.00198554
0
1.9708e-09
2.3299e-06
0.00159952
0
0.00140739
1.88714e-10
0.0164845
9.2969e-07
6.30809e-05
0.00142368
0
1.09418e-10
2.98677e-09
7.74454e-06
0.00150818
1.49662e-06
1.7127e-10
0.00132886
0.00236734
1.06685e-09
2.75322e-07
0.000958704
0.00127763
6.48104e-07
0
1.12815e-05
0.00102337
0
4.86581e-06
0
3.66447e-09
5.04999e-09
0
2.57227e-08
0
2.55449e-05
0.0011613
0.000959487
0
0.000208358
1.02156e-09
7.4061e-06
0.000746596
9.87204e-08
2.78364e-09
0.0292378
3.03923e-06
3.32549e-10
0.000253128
0
0.0127477
3.40204e-06
2.16551e-05
0.00326876
8.25789e-09
0.00116368
8.05112e-09
0.0042566
1.37616e-05
1.55336e-09
2.6583e-10
0.0146345
0
1.28753e-09
0
0.0109721
0
0.00909679
1.81864e-08
6.08995e-05
0.000109382
4.04734e-08
1.40252e-08
0
2.67083e-09
0.000599529
8.34676e-08
0.0137251
0.00867165
4.09369e-07
5.67119e-05
2.68204e-08
7.92733e-05
0.000100434
0.00563801
2.6803e-05
6.32889e-05
2.06951e-08
0.00554508
0.000125562
1.92404e-05
0.00634057
2.80929e-05
0
0.000187487
0.00735436
0
4.14084e-05
8.54414e-10
0.0192536
0.00169352
0
1.74578e-08
0.00671312
0.00795721
1.4061e-08
2.64194e-08
9.11577e-06
4.31023e-05
0
0.00461539
1.22684e-05
5.05039e-05
1.16953e-08
5.74231e-08
0
4.1764e-07
0.00162316
0
1.8073e-05
0
0.018769
0.000603975
2.12158e-10
3.76889e-05
0
0.000603707
0.00176131
0.0154409
0.000430267
0.00437193
0
1.39577e-08
3.33797e-06
1.30356e-06
0
0
0
8.37139e-10
1.55488e-08
0.00699331
0
5.8651e-10
0.00432595
0.00320324
3.52152e-10
0.00781553
4.53751e-05
0.00554688
0.00573811
0.00126407
0.00972648
0.000854777
0.0795688
2.16947e-05
0.00372034
8.55159e-10
0.0568637
1.04402e-07
3.11342e-10
0.00151926
3.51701e-07
5.51749e-07
0.00183562
4.73743e-09
0.00126433
1.9233e-07
3.31485e-07
0
2.10166e-09
0.00281097
0.0220722
9.3095e-08
0.000858112
0.0075022
5.44324e-05
0
0.0271871
2.03681e-05
0
0.00172294
0.00189753
0.00228351
0.00019305
0.000916616
0.000338565
8.67009e-10
0.00229486
2.63022e-09
1.10861e-09
6.76668e-06
0.000195351
0
0.0751662
1.4997e-06
6.25802e-05
7.01023e-06
0
0.00370522
0.000168427
0
0
2.25005e-06
0
2.3382e-10
0
0.00814158
4.07662e-06
0.000112497
0
0
6.54499e-05
0
0
0.00388782
0
0.00104961
0
0
1.48427e-08
5.48955e-05
9.35731e-05
3.34645e-08
0
0
0.000522447
0.000562604
1.29747e-06
0.00112149
0.00173206
2.00616e-06
0
1.29281e-10
0.000176007
8.40985e-05
0
0
0
0.000244035
8.4067e-07
6.78038e-08
3.7484e-07
0
1.42428e-10
0
0
0
5.13949e-05
6.9157e-07
0
7.69643e-07
0.00148627
1.81746e-06
1.53203e-06
0.0197791
0.00782239
1.60141e-06
0
1.69633e-05
0
0.00817159
0
3.67109e-07
0.00134893
8.913e-07
9.30089e-10
0.00495317
3.69786e-09
0
0.000588077
1.06609e-06
0.0239428
2.97311e-05
0.0230802
0.00755795
1.75494e-06
1.39324e-08
3.69272e-08
0.0106314
0.0111449
2.80011e-05
6.69009e-09
0.000156125
6.56861e-08
0
0
1.57752e-09
2.98492e-06
0.00120465
0.0013189
5.78868e-06
0.000333634
2.15094e-08
0
0.0344159
0.0065397
0.00105889
0
0.00590951
3.55098e-06
0.0567625
7.34556e-10
0.00105558
0.000184675
0.0210226
0.00125318
0
0.000459893
2.59826e-08
0.0195767
0.000499269
0.00957559
0.00074451
7.46215e-10
3.74916e-10
0
1.67589e-07
0.000424325
8.07059e-06
4.60658e-07
3.13245e-10
0
0.00324473
3.88535e-09
0.00788017
0.00984733
0.00857384
0.00881853
0.0169499
3.45755e-07
0
0.0500598
0.0155738
0
4.74346e-08
0.000603406
0.000919132
1.07353e-07
0
0.0191145
4.6655e-06
0.000839823
7.09587e-10
0.0195593
1.13331e-10
1.90574e-10
3.78939e-07
0.0214215
0
0.01707
0.000635877
1.54655e-06
0.0494011
0.000173269
0.000471916
0
0.030298
0.00562511
0.00484018
0.00509141
0.0106684
0.00105038
9.0026e-05
0.0180593
0.0210075
0
0.0456142
5.21941e-10
2.03173e-06
0.0185242
0.0128913
2.10579e-08
0.0223064
0.0533819
1.26561e-06
0.00114929
0.00116487
1.75715e-06
0.0230244
0.00549934
1.2077e-05
7.90631e-05
0.00513272
0.0628485
0
0.00663963
1.45312e-09
3.14689e-07
0
0.00153237
2.65282e-07
0.00982331
2.06226e-09
0.00197222
0
0.00037524
0.00505518
5.22162e-05
3.15809e-05
0.00438765
2.8088e-05
0.00938367
0.00168667
0
0.0211197
0.000911268
0.00386727
2.10968e-06
0.000872816
0.00146436
0
0.0472877
0.000708396
8.25921e-08
2.87688e-06
0.00647364
0
0.00165174
3.25637e-08
0.00459014
0.0130155
2.51592e-06
7.98137e-05
3.13765e-08
9.32173e-08
0.00152158
0.00197339
0.0776646
6.96436e-10
0.00185742
0.00223855
0.00536641
0.063076
2.22099e-05
0.0319482
5.41804e-08
1.88429e-08
0.000780785
5.18867e-07
0.000921404
1.32221e-07
0.0188115
0
3.04815e-06
0.022634
0.0018633
0
0.00140667
0.00027018
0.0087144
0.0146692
0
0.000127573
4.01813e-07
0.00189456
4.15869e-10
0.00194376
2.39322e-06
3.75768e-09
1.35329e-05
3.03026e-05
8.23517e-09
0.0546656
3.45068e-09
2.55744e-06
0.00169565
2.94632e-10
0.00611086
0.0578354
0.000588798
3.82436e-10
3.25805e-06
0.0600421
5.64013e-09
0.00994181
3.69915e-09
4.50036e-09
0.00293228
0.0180741
3.5295e-06
0.000873863
0
0
1.2297e-07
1.20263e-05
0.00124134
0
0.000731828
0.0010742
3.96328e-07
0
2.01157e-08
2.70745e-07
3.5479e-08
0.0142465
9.04787e-09
0.059973
3.99703e-09
2.78827e-09
0
1.7062e-08
0
0
0.000106883
0.00702005
6.86408e-08
0
0.0264795
4.08212e-07
2.49958e-08
3.38119e-07
0
0.00352717
0.0154369
9.83519e-07
0.000690964
0.0462081
8.50691e-08
1.39381e-07
0
0.000174176
7.14132e-09
3.23545e-09
5.81011e-05
0.0131067
9.19173e-08
0.00179107
5.83407e-08
0.000600147
0.00503357
0.0342758
0
0.00034975
0.0551729
0.00345681
0.00131298
1.50245e-06
0.0651619
0.0178861
0.00106942
8.26905e-05
0.0201245
1.4989e-07
2.8409e-07
0.000138032
5.90552e-06
0.00105155
3.79582e-10
1.49346e-05
0.0013156
2.97325e-05
0.00212333
6.73037e-10
3.3497e-10
6.89879e-05
0.0039888
1.7834e-05
6.18033e-06
0.00284657
0.00145122
0.0711984
0.00734254
2.66141e-06
0.000704023
0.0354597
0.0290586
0.000589518
0
0.00470302
1.69867e-06
0.00149234
0
0.000584264
2.74595e-08
0.0267787
1.33253e-07
0.000759029
7.75335e-08
0
0.000747812
1.13745e-08
0.000340452
0.0262419
9.55962e-09
2.94624e-06
3.66285e-08
0.00761867
4.12856e-07
2.04722e-10
4.88223e-09
0.00477375
0.00654062
0.00749169
0.0152703
0.00154837
8.29581e-08
0.0165894
0.010895
0.0679937
0.00673313
0.00394586
5.55162e-10
4.93192e-06
0.000825032
0.0126944
4.07014e-05
0.00329255
0.00656174
0.0537554
0
4.38978e-10
0.00216221
2.94537e-06
1.78254e-06
0.00147054
0.00402658
1.25963e-08
5.8081e-05
0.0588591
0.0620301
0.00468593
0.00549368
1.1804e-09
0.0643132
3.92423e-08
0.00605304
1.34343e-09
0.0654191
2.45681e-10
0.0061308
1.31807e-10
0.0411478
0.000888233
2.02646e-06
1.25565e-07
0.000204717
0.000203631
1.17181e-06
0.000177704
1.22284e-10
0.0110077
8.19614e-07
0
0
0.0394039
0.00010138
0
0.00376422
3.15541e-09
0
0
0.000974886
1.7663e-10
0
0.000175739
0.00034693
2.24319e-08
0.000129404
5.54569e-08
0
4.16367e-07
1.91847e-08
3.00268e-08
0.000595703
6.46241e-09
0.00579068
8.73607e-09
0
0
0.000412499
2.20507e-06
9.12152e-09
2.32592e-09
0.00340435
0
0.0022401
0
0.00175746
0.00256875
2.32813e-09
0.00153649
3.66596e-05
0
0
0.000253998
0.0678144
2.14284e-09
0.00143832
6.37203e-07
0
0.000104736
0.00711137
0.000107896
0.00784272
0.000115289
0.00397456
9.77528e-06
0.00643177
9.00432e-05
1.50084e-10
1.65724e-09
4.34605e-08
0.0169766
2.82187e-07
3.55198e-08
0.0140537
1.25405e-09
0.0244759
0.00282703
0.0294219
5.11956e-05
0
1.20068e-10
0.00121565
0.00213407
0
9.85313e-07
1.22763e-06
0.0103233
0.0190029
0.000247804
0.00047228
0.000701764
1.02229e-06
9.5355e-06
0
0
0.014945
0
0.000585991
0.00214768
3.52816e-09
0
0.00073944
0.0236381
0.00455992
2.59313e-09
4.24237e-09
3.34935e-09
3.81514e-09
2.20623e-05
2.27023e-09
2.17933e-05
3.02449e-06
0.0360067
1.68959e-10
0.00721599
2.91548e-09
3.12023e-05
3.75844e-09
2.96222e-10
4.36741e-09
0.060794
0.00760882
4.80169e-09
1.75242e-05
1.17117e-08
1.28579e-05
0.0101863
2.04052e-09
1.59844e-08
0.000147333
0.000165988
8.39826e-07
0.000120661
1.55061e-09
0.00209468
9.40248e-05
0.00058227
4.07515e-08
1.84981e-08
0.000343116
0.00762727
3.78313e-08
0
0
1.25875e-08
2.141e-07
3.21321e-08
0.000389012
0.0096625
0.00855893
0
0.00143245
5.69926e-05
4.75628e-05
0.0186336
0
9.0128e-05
0
0.000999172
0.00701277
1.23349e-08
0
2.02754e-09
1.33789e-10
0.00963374
0.00875246
5.20159e-05
0
0
0.00010739
4.57243e-08
4.69827e-08
0.0121113
0.00194447
0.000153903
0
6.75571e-09
0.000114553
6.47295e-06
0.0485869
0.0260858
0.0521357
0
0
0
0
2.8122e-09
0
4.28755e-05
4.31672e-05
0.00218775
0.0502479
0.00124786
0.000903475
1.82521e-07
0
2.47738e-07
2.41816e-06
4.40919e-08
9.36471e-09
0.0073937
6.80311e-10
3.35413e-05
5.12987e-05
0.00908849
1.48491e-06
4.20944e-05
0.0120859
0
0
1.18902e-09
0.00733643
0.00782776
6.88048e-09
4.47326e-10
0.00668628
1.46857e-10
0.00595866
0.0191484
0.00802079
0.00794726
0
1.09812e-09
0.00138689
0.000247833
1.61811e-06
0.000631982
0
0
0.00171594
4.03211e-07
5.89785e-07
4.25634e-07
0.0113707
0
0.0114375
0.0135962
6.76712e-08
0
0
4.46201e-06
1.14549e-09
0
0.0218414
0.00194055
0.000277266
0.000289969
7.84263e-07
1.59531e-08
0.000344242
0.000518999
3.60345e-08
0.0311164
0.000307251
5.45658e-07
2.2026e-07
0.000183519
0.000167279
0.000379521
9.76337e-09
1.66228e-08
2.29141e-10
0.00109084
0
0.000124956
8.71217e-09
0.000168023