# vtk DataFile Version 2.0
Unstructured Grid by M++
ASCII
DATASET UNSTRUCTURED_GRID
POINTS 4072 float
  0.609375   0.843750 0
  0.562500   0.843750 0
  0.531250   0.843750 0
  0.875000   0.828125 0
  0.984375   0.828125 0
  0.953125   0.828125 0
  0.937500   0.828125 0
  0.843750   0.828125 0
  0.812500   0.828125 0
  0.781250   0.828125 0
  0.765625   0.828125 0
  0.734375   0.828125 0
  0.703125   0.828125 0
  0.671875   0.828125 0
  0.640625   0.828125 0
  0.609375   0.828125 0
  0.593750   0.828125 0
  0.562500   0.828125 0
  0.546875   0.828125 0
  0.531250   0.828125 0
  0.515625   0.828125 0
  0.968750   0.812500 0
  0.937500   0.812500 0
  0.921875   0.812500 0
  0.890625   0.812500 0
  0.859375   0.812500 0
  0.828125   0.812500 0
  0.796875   0.812500 0
  0.765625   0.812500 0
  0.750000   0.812500 0
  0.718750   0.812500 0
  0.687500   0.812500 0
  0.656250   0.812500 0
  0.625000   0.812500 0
  0.593750   0.812500 0
  0.578125   0.812500 0
  0.546875   0.812500 0
  0.531250   0.812500 0
  0.515625   0.812500 0
  0.984375   0.796875 0
  0.562500   0.015625 0
  0.953125   0.796875 0
  0.921875   0.796875 0
  0.906250   0.796875 0
  0.875000   0.796875 0
  0.843750   0.796875 0
  0.812500   0.796875 0
  0.781250   0.796875 0
  0.750000   0.796875 0
  0.734375   0.796875 0
  0.703125   0.796875 0
  0.671875   0.796875 0
  0.640625   0.796875 0
  0.609375   0.796875 0
  0.578125   0.796875 0
  0.562500   0.796875 0
  0.531250   0.796875 0
  0.515625   0.796875 0
  0.968750   0.781250 0
  0.546875   0.000000 0
  0.937500   0.781250 0
  0.906250   0.781250 0
  0.890625   0.781250 0
  0.859375   0.781250 0
  0.828125   0.781250 0
  0.796875   0.781250 0
  0.765625   0.781250 0
  0.734375   0.781250 0
  0.718750   0.781250 0
  0.687500   0.781250 0
  0.656250   0.781250 0
  0.625000   0.781250 0
  0.593750   0.781250 0
  0.562500   0.781250 0
  0.546875   0.781250 0
  0.515625   0.781250 0
  0.984375   0.765625 0
  0.953125   0.765625 0
  0.921875   0.765625 0
  0.890625   0.765625 0
  0.875000   0.765625 0
  0.843750   0.765625 0
  0.812500   0.765625 0
  0.781250   0.765625 0
  0.750000   0.765625 0
  0.718750   0.765625 0
  0.703125   0.765625 0
  0.671875   0.765625 0
  0.640625   0.765625 0
  0.609375   0.765625 0
  0.578125   0.765625 0
  0.593750   0.750000 0
  0.562500   0.765625 0
  0.546875   0.765625 0
  0.531250   0.765625 0
  0.562500   0.750000 0
  0.968750   0.750000 0
  0.937500   0.750000 0
  0.906250   0.750000 0
  0.875000   0.750000 0
  0.859375   0.750000 0
  0.828125   0.750000 0
  0.796875   0.750000 0
  0.765625   0.750000 0
  0.734375   0.750000 0
  0.703125   0.750000 0
  0.687500   0.750000 0
  0.671875   0.750000 0
  0.656250   0.750000 0
  0.625000   0.750000 0
  0.546875   0.750000 0
  0.531250   0.750000 0
  0.515625   0.750000 0
  0.562500   0.734375 0
  0.984375   0.734375 0
  0.953125   0.734375 0
  0.921875   0.734375 0
  0.890625   0.734375 0
  0.859375   0.734375 0
  0.843750   0.734375 0
  0.812500   0.734375 0
  0.781250   0.734375 0
  0.750000   0.734375 0
  0.718750   0.734375 0
  0.687500   0.734375 0
  0.671875   0.734375 0
  0.656250   0.734375 0
  0.640625   0.734375 0
  0.546875   0.734375 0
  0.531250   0.734375 0
  0.515625   0.734375 0
  0.562500   0.718750 0
  0.968750   0.718750 0
  0.937500   0.718750 0
  0.906250   0.718750 0
  0.875000   0.718750 0
  0.843750   0.718750 0
  0.796875   0.718750 0
  0.765625   0.718750 0
  0.734375   0.718750 0
  0.703125   0.718750 0
  0.687500   0.718750 0
  0.671875   0.718750 0
  0.656250   0.718750 0
  0.625000   0.718750 0
  0.546875   0.718750 0
  0.531250   0.718750 0
  0.515625   0.718750 0
  0.562500   0.703125 0
  0.953125   0.703125 0
  0.921875   0.703125 0
  0.890625   0.703125 0
  0.859375   0.703125 0
  0.828125   0.703125 0
  0.781250   0.703125 0
  0.750000   0.703125 0
  0.718750   0.703125 0
  0.687500   0.703125 0
  0.656250   0.703125 0
  0.546875   0.703125 0
  0.531250   0.703125 0
  0.515625   0.703125 0
  0.984375   0.687500 0
  0.937500   0.687500 0
  0.921875   0.687500 0
  0.906250   0.687500 0
  0.875000   0.687500 0
  0.843750   0.687500 0
  0.812500   0.687500 0
  0.765625   0.687500 0
  0.734375   0.687500 0
  0.703125   0.687500 0
  0.671875   0.687500 0
  0.640625   0.687500 0
  0.593750   0.687500 0
  0.562500   0.687500 0
  0.546875   0.687500 0
  0.531250   0.687500 0
  0.515625   0.687500 0
  0.968750   0.671875 0
  0.937500   0.671875 0
  0.921875   0.671875 0
  0.906250   0.671875 0
  0.890625   0.671875 0
  0.859375   0.671875 0
  0.828125   0.671875 0
  0.796875   0.671875 0
  0.765625   0.671875 0
  0.750000   0.671875 0
  0.718750   0.671875 0
  0.687500   0.671875 0
  0.656250   0.671875 0
  0.625000   0.671875 0
  0.593750   0.671875 0
  0.578125   0.671875 0
  0.546875   0.671875 0
  0.531250   0.671875 0
  0.515625   0.671875 0
  0.984375   0.656250 0
  0.953125   0.656250 0
  0.937500   0.656250 0
  0.921875   0.656250 0
  0.906250   0.656250 0
  0.875000   0.656250 0
  0.843750   0.656250 0
  0.812500   0.656250 0
  0.781250   0.656250 0
  0.750000   0.656250 0
  0.734375   0.656250 0
  0.703125   0.656250 0
  0.671875   0.656250 0
  0.640625   0.656250 0
  0.609375   0.656250 0
  0.578125   0.656250 0
  0.562500   0.656250 0
  0.531250   0.656250 0
  0.515625   0.656250 0
  0.968750   0.640625 0
  0.937500   0.640625 0
  0.906250   0.640625 0
  0.890625   0.640625 0
  0.859375   0.640625 0
  0.828125   0.640625 0
  0.796875   0.640625 0
  0.765625   0.640625 0
  0.734375   0.640625 0
  0.718750   0.640625 0
  0.687500   0.640625 0
  0.656250   0.640625 0
  0.625000   0.640625 0
  0.593750   0.640625 0
  0.562500   0.640625 0
  0.546875   0.640625 0
  0.515625   0.640625 0
  0.984375   0.625000 0
  0.953125   0.625000 0
  0.921875   0.625000 0
  0.890625   0.625000 0
  0.875000   0.625000 0
  0.843750   0.625000 0
  0.812500   0.625000 0
  0.781250   0.625000 0
  0.750000   0.625000 0
  0.734375   0.625000 0
  0.718750   0.625000 0
  0.703125   0.625000 0
  0.671875   0.625000 0
  0.640625   0.625000 0
  0.609375   0.625000 0
  0.578125   0.625000 0
  0.562500   0.625000 0
  0.546875   0.625000 0
  0.531250   0.625000 0
  0.968750   0.609375 0
  0.937500   0.609375 0
  0.906250   0.609375 0
  0.875000   0.609375 0
  0.859375   0.609375 0
  0.828125   0.609375 0
  0.796875   0.609375 0
  0.765625   0.609375 0
  0.750000   0.609375 0
  0.734375   0.609375 0
  0.718750   0.609375 0
  0.703125   0.609375 0
  0.687500   0.609375 0
  0.656250   0.609375 0
  0.625000   0.609375 0
  0.593750   0.609375 0
  0.562500   0.609375 0
  0.546875   0.609375 0
  0.531250   0.609375 0
  0.515625   0.609375 0
  0.984375   0.593750 0
  0.953125   0.593750 0
  0.921875   0.593750 0
  0.890625   0.593750 0
  0.859375   0.593750 0
  0.843750   0.593750 0
  0.812500   0.593750 0
  0.781250   0.593750 0
  0.750000   0.593750 0
  0.734375   0.593750 0
  0.718750   0.593750 0
  0.687500   0.593750 0
  0.671875   0.593750 0
  0.640625   0.593750 0
  0.609375   0.593750 0
  0.578125   0.593750 0
  0.562500   0.593750 0
  0.546875   0.593750 0
  0.531250   0.593750 0
  0.515625   0.593750 0
  0.968750   0.578125 0
  0.937500   0.578125 0
  0.906250   0.578125 0
  0.875000   0.578125 0
  0.890625   0.562500 0
  0.843750   0.578125 0
  0.828125   0.578125 0
  0.796875   0.578125 0
  0.765625   0.578125 0
  0.734375   0.578125 0
  0.703125   0.578125 0
  0.671875   0.578125 0
  0.656250   0.578125 0
  0.656250   0.562500 0
  0.625000   0.578125 0
  0.640625   0.562500 0
  0.593750   0.578125 0
  0.562500   0.578125 0
  0.546875   0.578125 0
  0.531250   0.578125 0
  0.515625   0.578125 0
  0.859375   0.562500 0
  0.828125   0.562500 0
  0.781250   0.562500 0
  0.750000   0.562500 0
  0.718750   0.562500 0
  0.687500   0.562500 0
  0.609375   0.562500 0
  0.578125   0.562500 0
  0.562500   0.562500 0
  0.546875   0.562500 0
  0.531250   0.562500 0
  0.515625   0.562500 0
  1.000000   0.812500 0
  0.578125   0.031250 0
  0.875000   0.546875 0
  0.625000   0.546875 0
  0.218750   0.000000 0
  0.640625   0.781250 0
  0.828125   0.093750 0
  0.031250   0.531250 0
  0.296875   0.328125 0
  0.296875   0.312500 0
  0.281250   0.312500 0
  0.765625   0.312500 0
  0.031250   0.859375 0
  0.093750   0.265625 0
  0.109375   0.250000 0
  0.187500   0.671875 0
  0.421875   0.640625 0
  0.031250   0.062500 0
  0.140625   0.125000 0
  0.562500   0.906250 0
  0.125000   0.437500 0
  0.203125   0.937500 0
  0.125000   0.421875 0
  0.140625   0.406250 0
  0.093750   0.437500 0
  0.109375   0.421875 0
  0.093750   0.421875 0
  0.109375   0.406250 0
  0.328125   0.125000 0
  0.750000   0.906250 0
  0.328125   0.109375 0
  0.750000   0.890625 0
  0.312500   0.125000 0
  0.734375   0.906250 0
  0.281250   0.343750 0
  0.265625   0.359375 0
  0.500000   0.796875 0
  0.078125   0.015625 0
  0.062500   0.015625 0
  0.484375   0.796875 0
  0.484375   0.781250 0
  0.062500   0.000000 0
  0.015625   0.250000 0
  0.062500   0.046875 0
  0.484375   0.828125 0
  0.484375   0.812500 0
  0.062500   0.031250 0
  0.281250   0.671875 0
  0.062500   0.234375 0
  0.328125   0.765625 0
  0.312500   0.750000 0
  0.015625   0.671875 0
  0.781250   0.187500 0
  0.015625   0.265625 0
  0.453125   0.250000 0
  0.453125   0.234375 0
  0.031250   0.265625 0
  0.046875   0.250000 0
  0.093750   0.015625 0
  0.265625   0.656250 0
  0.734375   0.281250 0
  0.156250   0.015625 0
  0.062500   0.265625 0
  0.046875   0.281250 0
  0.031250   0.281250 0
  0.343750   0.781250 0
  0.328125   0.781250 0
  0.265625   0.687500 0
  0.265625   0.703125 0
  0.156250   0.109375 0
  0.578125   0.890625 0
  0.484375   0.984375 0
  0.062500   0.203125 0
  0.328125   0.718750 0
  0.343750   0.734375 0
  0.343750   0.750000 0
  0.453125   0.500000 0
  0.437500   0.500000 0
  0.234375   0.093750 0
  0.171875   0.375000 0
  0.437500   0.531250 0
  0.468750   0.546875 0
  0.453125   0.546875 0
  0.187500   0.015625 0
  0.187500   0.000000 0
  0.609375   0.781250 0
[...]
CELL_DATA 7648
SCALARS scalar_value float 1
LOOKUP_TABLE default
0.0010491
0.00114181
0.00134706
0.00101833
0.0612846
0.0632477
0.0689647
0.0617427
0.00108617
0.00128813
0.00138305
0.0278893
0.0292135
0.0235246
0.000213829
0.000184983
0.000196588
0.000147023
5.71746e-07
5.52084e-07
6.71653e-07
4.71793e-07
2.48046e-07
4.90561e-08
5.40489e-08
7.88586e-08
4.26438e-08
0.00330177
0.00354954
8.27633e-09
1.04359e-08
1.40387e-08
8.30366e-09
2.33721e-08
2.9407e-08
3.84016e-08
2.48274e-08
9.08794e-09
1.2148e-08
1.61671e-08
2.49843e-09
5.57074e-09
0.00139513
0.00189375
0.00191747
0.0186182
0.0213651
0.0248431
5.0429e-08
0.0274671
0.0714301
6.02752e-07
6.68305e-08
8.81193e-08
0.000887562
7.15564e-08
0.00114739
0.000683876
1.76717e-08
2.59468e-08
3.80735e-08
2.2399e-07
1.52545e-07
0.00141586
0.00117414
0
0
4.97811e-08
5.35171e-05
0
2.25917e-05
0
0.000153855
0.000284704
0.00152006
0
0.00225518
0
0.00144212
0.0005502
0.000739734
0
0
0
0.0357961
3.17334e-08
1.428e-05
1.29074e-05
0.0021301
0
1.66605e-09
0
8.85451e-07
1.2262e-06
0
3.29661e-08
0.00255798
5.56472e-08
0.00331907
0.00407444
0.000396551
1.93433e-07
0.000441026
0.000798255
4.31492e-07
1.7626e-05
0.000158581
0.0325256
0.0305425
9.01462e-10
2.64243e-08
0.000105939
0.000105153
0
1.47877e-06
0
1.9216e-06
1.05903e-06
3.69967e-08
0.0541812
0.0560545
0
0
2.63914e-06
0
0
0
0.0115138
0.0140724
0.00960781
0
0.00613678
0
0.0162977
4.66921e-05
0.0152892
0.00313414
1.12765e-07
2.14468e-08
0.0166025
0.00188033
0.0185809
0.0202171
9.25143e-09
0.019839
0.0211042
0.0560201
6.60459e-07
0.0716188
0.00148094
0.00139793
9.6616e-08
1.26524e-07
1.62436e-07
0.00916437
0.0074681
0.039806
1.38577e-08
0.0343626
8.65246e-08
0
6.28752e-07
7.34108e-07
0.000113591
0.0204762
0.0241193
1.06632e-08
0.0178427
1.83744e-07
0.111427
0
0.0238589
0.0242209
0.00456455
9.00943e-05
2.10666e-06
0.073608
0.0107346
4.30179e-05
0.0125826
0.0150216
5.92171e-05
0.0399995
0.00290543
0
1.04441e-06
0.0790228
0
0
0.00417771
0
0.00479744
0.00420948
0
4.17405e-09
0.00474822
0.0056798
0.00469263
0
0
0
0.0357621
1.32583e-06
0.0863579
0.0820051
1.1899e-06
1.17708e-07
0.0169759
0.018794
0.0153923
9.37842e-09
1.48051e-08
2.202e-08
1.3301e-08
0.0179214
2.20365e-06
0
0.1298
0
0.000825121
0.0018103
0.0195001
0.0228363
4.2548e-09
0.0187262
9.30465e-10
0.000252308
0.000662988
0.0148779
0.0124065
0.0864015
0.075757
0.00776136
2.00816e-05
0.0997158
0.1038
0.108713
0.104224
0.00547694
0
0.00471046
0.00725072
1.87784e-05
0.00150028
0.0016908
0.0159597
6.58041e-05
0.0141931
0.0166208
5.64e-10
0.0133877
0.000894117
1.14784e-07
1.54839e-07
1.49805e-07
0.00233053
8.5837e-06
0.00293442
0.00338582
4.43064e-07
5.47571e-07
5.3994e-07
0.00877641
1.23615e-08
3.5616e-09
0.0143235
1.03539e-08
0.0225673
7.39096e-09
0.0102653
0.0509464
4.70413e-07
0
0.0484979
0.00710282
1.88268e-09
0.129047
0.00337039
1.17235e-05
1.45229e-05
2.01764e-09
0.00179536
0.00226826
0.0113861
2.80825e-05
0.00844282
0.0116494
2.36267e-09
9.86107e-10
0.00642401
1.66682e-09
0.0170615
0.000354833
1.11344e-10
1.45036e-05
1.46803e-05
1.54879e-10
1.81905e-05
0
0.00117118
9.45958e-07
4.14591e-05
0.0254544
0.00172688
3.07034e-07
2.49912e-07
2.23218e-07
1.67777e-06
0.00371477
5.18432e-06
3.78651e-06
0.00749014
0.0218904
0
0.00420961
0.000351162
1.88684e-06
0.00382716
1.47728e-06
0.000215998
1.06616e-06
2.09357e-07
0.00134832
0.00336849
0.00622227
9.07187e-06
1.87629e-06
0.00334372
0.00461785
4.16002e-06
0.00390264
8.92337e-08
0.0205354
0.000849344
0.0306371
0.000780385
0.029416
0.0482357
0.0426041
5.33666e-07
0.00174932
0.0626369
0.0566443
0
0.0417439
0.000391501
0.000546773
0.0178583
6.16337e-10
0
0
0
6.13968e-07
0.00768398
2.56364e-10
0.0066116
9.61651e-10
0.0545179
0.0489631
0.0474664
1.24014e-05
9.95027e-06
1.05966e-05
8.26024e-05
0.00457157
0.00401092
0.00479281
0
2.49723e-10
1.55667e-10
0.00475719
6.4754e-05
8.78279e-10
0.00905643
5.25817e-10
0.0133317
0.00559376
1.23185e-10
0.000197409
2.51884e-07
1.06432e-05
0.00817741
1.58703e-05
0.000254958
0.0174124
0.000122661
0.0180053
3.97618e-05
3.88509e-09
0.0215951
0.018529
0.00013929
0.0334896
0.0293412
0.0306769
6.00399e-08
6.41294e-08
0.0510622
0.0040861
0.000180092
1.51648e-08
0.0335274
0.00416319
0.000134894
0.00524971
0.000114264
1.96135e-09
0.00498517
0.0414346
4.45428e-08
0.0120635
0.00246958
0.00153613
0.00687366
4.38892e-05
0.0004515
0
0.000439237
5.29871e-10
4.44188e-05
0.00401531
7.23306e-05
0.0156793
1.99255e-07
4.92837e-07
4.36464e-07
0.0542593
4.46896e-07
0.00323112
2.43577e-08
0.00344583
1.31248e-06
1.85186e-08
1.64651e-10
2.04828e-08
1.1886e-08
4.36307e-09
0
0.0524048
0.0029321
3.20822e-06
0.00220084
3.17857e-07
3.56869e-07
0.00626199
4.80233e-07
0.00624558
0.00521011
0.00207421
0.0029855
0.0820618
1.62359e-06
1.73928e-08
1.19566e-06
0.00235485
2.60244e-08
3.35406e-08
2.8518e-08
0.0012736
0.00446246
0.0445681
9.51632e-07
0.00137342
0.00111724
0
1.32311e-08
1.08576e-08
0
0
3.7898e-10
0.0107115
0
1.50747e-05
0
1.17767e-10
1.44973e-05
2.14982e-07
0.000659242
0
0.0033111
0
8.18056e-06
0
0
0.00581004
0.00741188
0.00925886
0.00455844
2.06352e-06
3.26468e-06
0
2.37698e-06
0
1.16847e-05
0.0012129
0
1.20493e-06
0.047172
0.000416658
1.56274e-08
1.16765e-08
0.00471685
0.000133172
1.45713e-08
1.07988e-08
0.0260776
3.7721e-08
2.94075e-08
2.77406e-08
2.21585e-08
0.0520054
0.00185648
3.40824e-08
1.14921e-10
0.00239707
6.71543e-09
0.0115799
2.85717e-08
6.47367e-09
0.0130091
2.28113e-08
0.0220667
1.40837e-08
2.3617e-08
0.00207176
6.43252e-05
0.12572
0.0141835
6.48479e-05
4.6223e-05
0.0114273
4.95142e-09
0.0251788
6.86618e-09
9.26384e-05
0.07694
0.000146177
0.065151
7.30293e-05
0.000212947
0.000101816
0.000241383
1.15984e-08
1.23084e-08
0.0409362
4.82015e-05
0.00472926
4.88692e-05
0.00179082
6.07234e-05
4.48288e-05
0.12132
7.10767e-05
6.12047e-05
0.000366999
0.000380047
0.000509225
0.0324525
3.96193e-08
1.90186e-08
0.0296681
4.1077e-09
1.39783e-09
6.9641e-09
0.000893331
4.22049e-05
4.84696e-07
0.00102796
0.000911205
0.0013878
2.55349e-07
0.00245078
5.11908e-05
0.0118642
6.73317e-09
3.32251e-05
0.0594974
3.21578e-09
0.00449336
7.14532e-07
0.0002391
0.000231741
1.72569e-09
2.77535e-09
0.00249135
1.08659e-09
0.000485721
0.0192312
2.66333e-09
0.0409056
0.0466273
0
1.40264e-08
1.62035e-08
0.116694
3.55642e-08
8.22902e-05
0.00791164
9.59145e-09
0.0121758
1.39987e-08
9.08056e-09
5.45995e-09
5.90101e-09
0.00794485
0.00713386
7.23389e-09
0.0241773
5.74388e-05
0.0849642
0.0834144
0.0846332
0.00805168
0.00714177
0.0077474
4.65753e-07
0.0169363
3.88294e-07
1.94019e-08
4.42155e-09
0.00766434
6.66253e-09
8.39445e-09
1.05422e-08
0.0108243
1.33901e-08
8.84902e-09
3.13758e-09
4.53356e-09
5.58216e-09
8.77694e-09
0.00355573
2.46016e-09
3.05624e-09
0.111229
1.00167e-05
0.118112
0.0073947
0.000100679
8.74976e-05
0.0262584
0.0200619
0.000267221
0.0978801
0.00682165
0.0169702
0.0198732
2.49092e-10
4.10942e-10
0
1.14309e-05
0.0115064
0.0132264
1.00019e-09
0
2.61768e-05
1.54141e-09
2.03753e-05
6.85732e-05
1.33647e-05
0.0014661
0.00289356
1.02435e-05
1.34219e-08
1.60224e-07
0.0500832
1.42141e-08
1.83885e-07
0
0
0
7.2861e-08
0.0670127
2.13787e-08
0.0602497
1.15496e-06
0.000492717
0.000528928
0.000686791
0.0272274
0.028853
0.0290338
0.00164823
0
0.000191199
0.0224431
0.0396484
0.0202398
2.6027e-09
0.00418172
0.0230875
0.0257523
7.0883e-09
0.000284513
0.0239029
0.0299279
0.00043807
2.93411e-07
0.0238309
0.0083449
0.00685005
0.00390562
0.00395409
1.14389e-05
0.00267188
5.12217e-06
0.00192848
0.00238215
0.0538172
0.0597902
0.0971427
0.102197
0.106097
0.00509387
0.00350965
0.076792
0.0832358
1.3369e-06
8.14652e-06
0.0824201
0.0884196
0.00228146
0.00244714
0.00206647
0.0642279
0.0703627
0.0122196
0.0759559
0.00123079
0.00144444
0.00174609
0.0516361
0.0572049
0.0625661
1.45653e-07
8.88552e-08
0.000233496
0.0450128
0.0439363
0.0498068
0.00327091
0.0485149
0.0576432
0.0547091
4.53669e-08
0.000637186
1.2824e-05
0.000824931
0.00146169
2.1384e-07
0.0320557
0.0368383
0.0413241
3.15411e-09
7.65882e-09
4.31641e-09
4.98061e-09
0.00050317
0.000365734
3.98909e-10
0.00507867
3.54863e-06
2.71371e-10
5.35641e-10
2.83992e-05
1.44906e-09
0.00580066
0.0601478
4.94198e-05
2.53525e-05
2.74097e-05
2.15905e-05
3.99123e-05
3.49187e-05
2.99265e-05
3.80962e-05
1.10851e-08
5.24061e-05
4.86536e-05
0.00153115
0.00195416
7.77847e-06
1.39717e-05
0
0.00467817
0
0.00104222
0.00129418
0.0107657
2.22291e-05
1.97898e-05
2.31498e-09
2.3738e-06
2.84788e-07
0.00408258
5.03785e-06
1.59294e-07
0.00189158
2.22195e-10
0.0029138
0
1.02292e-09
0.00227475
1.05082e-06
0.00108706
5.53029e-10
0.00992294
0.00166761
3.5198e-06
1.43568e-06
0.00125576
2.31531e-10
1.74261e-05
0.00125218
1.53439e-05
1.70356e-05
0.0015493
1.97404e-05
0.0157512
0.01657
3.58029e-09
0.00154698
0.0034877
3.05365e-09
1.62758e-09
0.0778456
0.00888807
0.00712482
0
0.00562835
0
8.39187e-06
0.0116639
0.0120879
0.00990703
1.7374e-05
1.56837e-05
0.0210146
0.00271833
0.00222533
6.11212e-08
0.00330319
0.00397441
0
1.48339e-06
0.0831241
0.00204284
3.02525e-08
2.53322e-07
0.0340969
0.00457176
0.000127999
0.0174867
0.019227
0.000253779
0.0189849
3.35371e-09
0.00299571
3.23253e-05
0.000297385
0.022023
6.6942e-08
0.0247415
0.0070416
1.07596e-08
0
0.0125043
1.25226e-07
0.0163983
3.39353e-07
8.51985e-07
0.0015863
7.62241e-07
0
0
0
9.07323e-07
3.82876e-07
0
0.00608494
0
0.0028693
2.70763e-07
3.06919e-07
0
1.68388e-06
0.00239743
0.00355604
3.64443e-06
0
0
0.00116848
0.00139775
0.00108778
0.0482229
0.00116337
0
0
0.00106928
0.00139117
1.36329e-05
0.000875345
0.00179068
3.03931e-10
0
1.63122e-07
0.00253423
1.76526e-07
1.07484e-07
0.00154213
1.83819e-06
7.81648e-07
0.0011169
0.0339169
0.0411109
0
1.02668e-07
0.0468878
1.30707e-07
1.28154e-07
2.35216e-07
0.0683118
2.54187e-06
1.40649e-07
6.14751e-08
3.88902e-06
0.00488562
2.07072e-07
0.00564189
0.00391364
0.0541923
0
0.00216961
0.00261122
0.00327496
0.00538771
1.16163e-05
0.0037279
5.96487e-06
2.85019e-06
0.00253182
0.00166934
2.34338e-07
0.00152245
1.07442e-06
0.00167207
0.048161
0
0.000113264
1.52169e-10
8.07976e-05
8.17518e-08
1.56437e-07
0.00017973
3.15224e-06
0.000184248
0.00420798
0
0
2.19839e-08
0.0483121
0.0562316
0
0.00366296
0
0
0
0.000911315
6.06999e-07
0.00430634
0
0.0376598
2.90371e-07
0
0.0018181
0.00415923
0.123552
0.0337683
0.122966
0.125745
0.0172532
0.121074
0.00754141
1.41596e-06
0.0658257
0.0111731
6.07312e-07
0.059619
0.0602446
3.19094e-08
0.000927154
1.24297e-06
0
0.00132335
0.00999915
3.52271e-05
1.89522e-05
0.00792652
0.118812
0.000123611
0
0.00640822
1.10161e-06
0.0558261
0.108065
0.0139803
0.115647
0.0197993
9.5703e-05
0.000699622
0.111205
0.00734735
0.000508005
0.011924
3.52818e-05
6.07173e-05
0.00669234
4.99544e-07
0.00337626
2.5447e-05
0.00118897
1.06058e-06
0.0750845
0.00120007
5.90172e-06
2.51379e-06
0.00136334
0.00946962
0
0.0552569
1.21317e-09
2.71344e-10
1.05914e-09
0.000606122
4.01381e-10
0.00190313
1.25686e-05
0.000935735
0.0689061
5.21126e-06
0.00713146
0.00187418
2.20791e-06
5.98507e-09
4.35965e-10
1.5417e-08
0.000510544
0
0
0
2.49043e-07
0.070387
1.80498e-05
0.109853
0.033173
0.0518947
2.91091e-06
3.94396e-07
0.038328
0.00512678
5.00111e-07
0.0678856
0.0572052
3.02341e-06
1.80007e-07
5.83178e-10
2.11279e-07
2.60591e-06
0.00127866
0.0287087
0.0615523
0.0378308
1.29686e-07
1.11184e-07
1.33218e-07
1.49719e-07
0.0073368
0.062598
0.00266503
0
0.00868019
0.0773687
0
8.73813e-05
0.0588237
3.72619e-08
0.0762098
0.00451345
0.00382244
0
5.29223e-08
4.67401e-05
0.00736814
0
0.00795537
3.46072e-09
0.0249606
1.96868e-05
0.000402996
0.00796463
0
2.87184e-09
6.56167e-08
0.000140085
0.00896794
2.40967e-05
3.3618e-09
0.00739954
0.0160568
2.28027e-08
4.70596e-06
0.00601777
0.00773371
1.0761e-05
4.96359e-10
0.000199391
0.00575723
0
7.56894e-05
0
9.39623e-08
1.04384e-07
0
5.79947e-07
0
0.000414736
0.0115154
0.00584148
1.02836e-10
0.00275861
1.87639e-08
0.000136605
0.00356787
1.44178e-06
7.5256e-08
0.0879099
4.52622e-05
5.99075e-09
0.00327994
6.40101e-10
0.0257495
6.68675e-05
0.000335936
0.025087
2.06964e-07
0.00659495
2.18324e-07
0.014084
0.000196903
2.78115e-08
4.88121e-09
0.0272869
3.2232e-10
2.83817e-08
1.44382e-09
0.0216404
0
0.0390387
3.74165e-07
0.000716127
0.00122786
8.27707e-07
2.33577e-07
2.56697e-09
6.92691e-08
0.00186078
1.64752e-06
0.0578529
0.0381428
8.78582e-06
0.000680257
5.76552e-07
0.00101242
0.00142671
0.0283693
0.00035383
0.000855626
4.55709e-07
0.0147143
0.00175458
0.000252096
0.0297341
0.000354101
0
0.00251891
0.0338523
0
0.000513222
1.69195e-08
0.0488494
0.00408125
0
4.06561e-07
0.0307018
0.0347089
2.67254e-07
6.61351e-07
0.000126098
0.00051371
0
0.0230554
0.000166304
0.000662739
2.5445e-07
1.35725e-06
0
8.29978e-06
0.00381986
0
0.000240587
0
0.0513951
0.00677889
5.44606e-09
0.000497845
0
0.00671951
0.00372548
0.0167902
0.00500323
0.00632922
0
3.24404e-07
4.53675e-05
2.71535e-05
1.54808e-10
0
2.66527e-09
2.24538e-08
3.3367e-07
0.038472
0
1.25264e-08
0.0279666
0.0215004
7.23978e-09
0.0427281
0.0006354
0.0356673
0.033432
0.00518901
0.0315865
0.00652046
0.13482
0.000321816
0.0266376
1.95684e-08
0.111398
2.53416e-06
8.64888e-09
0.0134505
7.8904e-06
1.21593e-05
0.00793612
1.21178e-07
0.00573569
4.56142e-06
7.64767e-06
5.65148e-10
5.07957e-08
0.0216899
0.0452005
1.53134e-06
0.00493065
0.0092011
0.000602436
0
0.0533259
0.000258061
0
0.00851097
0.0037671
0.0184926
0.00257165
0.00245115
0.00174085
2.10318e-08
0.0179986
4.66231e-08
1.96391e-08
7.27601e-05
0.000769454
0
0.136235
2.20807e-05
0.000672366
0.000126128
0
0.00492505
0.00202851
0
0
3.77863e-05
0
6.37559e-09
1.62704e-09
0.0170819
7.93645e-05
0.00151475
0
0
0.000925859
0
0
0.0055136
0
0.004252
0
0
3.14142e-07
0.000684709
0.00112409
7.02193e-07
0
0
0.00588395
0.00616235
2.42722e-05
0.0089007
0.0128786
3.58986e-05
0
2.87302e-09
0.000925827
0.000391688
0
0
1.95721e-10
0.00131307
1.64028e-05
1.54236e-06
7.45057e-06
0
3.89868e-09
0
4.33738e-10
0
0.000555588
7.87665e-06
0
1.22919e-05
0.00843056
2.84183e-05
2.67691e-05
0.0436475
0.0370045
2.42878e-05
0
0.000133386
0
0.0377867
0
5.69756e-06
0.00740015
1.35822e-05
1.89279e-08
0.0241129
8.66506e-08
0
0.00547879
2.07811e-05
0.0405128
0.000475017
0.0300719
0.0282817
3.09662e-05
3.76887e-07
9.73812e-07
0.0435735
0.0445076
0.000364277
1.41168e-07
0.0016446
1.31712e-06
0
0
3.76916e-08
5.66825e-05
0.0115293
0.0125509
0.000104967
0.00199475
5.02657e-07
0
0.0985305
0.0225197
0.0081718
0
0.0290934
5.52995e-05
0.119602
1.9343e-08
0.010082
0.00095044
0.087166
0.00315621
0
0.00386959
6.96213e-07
0.0834611
0.00573943
0.0122943
0.00251395
1.60885e-08
9.66964e-09
0
2.95792e-06
0.00309421
5.89527e-05
9.07994e-06
5.98682e-09
0
0.00467392
1.0484e-07
0.0158146
0.055161
0.0500273
0.0507791
0.0772677
7.11782e-06
0
0.113546
0.0734935
0
7.57752e-07
0.00323988
0.00491513
1.67259e-06
1.50826e-09
0.0827502
8.32487e-05
0.00877352
1.81975e-08
0.0260218
3.12109e-09
4.28444e-09
7.21046e-06
0.0807901
0
0.0776018
0.0068712
3.046e-05
0.0826225
0.00201831
0.00452236
0
0.0992766
0.0375128
0.0338493
0.00493962
0.0576624
0.00978894
0.000483472
0.0798767
0.0355442
9.74495e-10
0.102602
1.43954e-08
3.58641e-05
0.0812451
0.0491731
5.66443e-07
0.0896992
0.109604
2.47983e-05
0.0107133
0.0110527
3.42308e-05
0.0915063
0.0149864
0.000208148
0.00115006
0.027557
0.116802
0
0.0327752
2.80075e-08
6.31997e-06
1.77621e-09
0.00369741
4.94341e-06
0.018802
4.9167e-08
0.0158486
0
0.00304641
0.0345702
0.000752602
0.000464213
0.0307535
0.000447595
0.0095201
0.00676916
0
0.0874678
0.0090629
0.00535567
4.09837e-05
0.0054647
0.0086196
7.22392e-10
0.108612
0.00443308
1.42215e-06
5.591e-05
0.00905787
0
0.0038007
7.33072e-07
0.00423129
0.0298845
4.24758e-05
0.000460903
8.34413e-07
2.01968e-06
0.00764446
0.00915046
0.135959
1.73299e-08
0.0157498
0.00762975
0.0282134
0.115444
0.000320853
0.108316
1.41676e-06
5.08738e-07
0.00726443
1.11304e-05
0.00457392
1.92858e-06
0.0811936
1.57293e-09
6.05271e-05
0.0907852
0.0152827
0
0.00384447
0.00344811
0.0128439
0.0242841
0
0.000659887
7.91016e-06
0.0143718
9.60265e-09
0.0136987
4.13725e-05
7.59594e-08
0.000179926
0.000375025
1.68708e-07
0.10535
8.37035e-08
4.396e-05
0.0136323
7.10452e-09
0.00559018
0.110256
0.00212586
8.23528e-09
5.25878e-05
0.126883
9.77592e-08
0.0253872
9.35586e-08
1.22108e-07
0.0105787
0.0260834
5.78653e-05
0.00374448
0
0
2.33798e-06
0.000175202
0.00525259
0
0.00321462
0.0046704
4.84098e-06
6.84421e-10
3.69186e-07
5.88963e-06
8.61978e-07
0.0449865
2.45476e-07
0.115747
8.51153e-08
7.31543e-08
0
3.41104e-07
0
0
0.00134588
0.04367
1.46923e-06
0
0.068542
6.50335e-06
5.6925e-07
6.16058e-06
0
0.0126601
0.0547728
1.90008e-05
0.00615199
0.0752956
1.87097e-06
2.94543e-06
2.07808e-10
0.00111204
1.23624e-07
5.6167e-08
0.000390318
0.0292258
2.2885e-06
0.00555068
8.97048e-07
0.00299016
0.0154781
0.107723
0
0.00176007
0.115067
0.0114512
0.0103289
2.79827e-05
0.121259
0.0650529
0.00926213
0.00120067
0.0604694
2.55802e-06
5.37341e-06
0.000665066
0.000109174
0.00849893
1.02072e-08
0.000252037
0.0126962
0.000468704
0.0152236
1.49002e-08
6.53194e-09
0.000429496
0.0253877
0.000250851
9.45907e-05
0.0189697
0.00576403
0.126752
0.0394791
5.15177e-05
0.00758599
0.0987712
0.102336
0.00271512
0
0.0133906
3.08294e-05
0.0111481
0
0.00530202
5.40657e-07
0.0932555
2.57008e-06
0.00391894
1.19276e-06
0
0.00212223
2.79349e-07
0.00250574
0.0982546
2.29359e-07
4.46806e-05
8.0904e-07
0.046367
7.21703e-06
5.01014e-09
9.3017e-08
0.00437978
0.0418371
0.0459695
0.036102
0.00354866
1.71903e-06
0.0754498
0.0244347
0.12389
0.0357778
0.0234303
1.1001e-08
9.22489e-05
0.00872035
0.0148349
0.000630865
0.0199237
0.0410119
0.115721
1.74465e-10
9.83478e-09
0.0144244
4.88629e-05
3.08472e-05
0.0104362
0.0123324
3.40683e-07
0.000869541
0.11671
0.120339
0.0267929
0.0309597
2.389e-08
0.123941
1.02633e-06
0.0319347
2.65515e-08
0.120156
4.73029e-09
0.00603566
2.54844e-09
0.0706199
0.00249051
3.06532e-05
2.53366e-06
0.00220091
0.00270968
2.41478e-05
0.00176322
2.31538e-09
0.0239863
1.73029e-05
0
1.13211e-09
0.0604654
0.00106186
4.57331e-10
0.0228018
6.69687e-08
0
0
0.00986106
4.50691e-09
0
0.000971382
0.00187869
3.66353e-07
0.00146993
1.14087e-06
0
8.96736e-06
5.17453e-07
8.00747e-07
0.00180114
1.62766e-07
0.0312079
1.82193e-07
0
0
0.00392528
3.02869e-05
1.98931e-07
5.09398e-08
0.0219057
0
0.00397106
0
0.0158665
0.00419683
5.84788e-08
0.0141924
0.000570879
0
0
0.00133745
0.12474
4.86545e-08
0.00679973
8.31465e-06
0
0.00149008
0.0360569
0.00152895
0.0401138
0.0016267
0.0104498
6.94496e-05
0.0349349
0.00129914
3.87073e-09
4.20807e-08
8.99052e-07
0.0741357
4.42004e-06
7.52539e-07
0.0675351
3.39686e-08
0.0463979
0.0211498
0.104506
0.000273589
1.22105e-10
2.18067e-09
0.00660129
0.00392151
0
1.96742e-05
2.41442e-05
0.0376356
0.0336858
0.00140335
0.00325071
0.00733214
2.02528e-05
0.000170505
0
0
0.0309789
0
0.00321376
0.00401419
9.55254e-08
1.46055e-09
0.00268225
0.0929519
0.0223413
4.82134e-08
7.81261e-08
6.24086e-08
7.252e-08
0.000310965
4.13999e-08
0.000299186
5.04096e-05
0.111821
3.62471e-09
0.0294706
5.25671e-08
0.000427208
6.78499e-08
6.30176e-09
7.65603e-08
0.121085
0.0460514
8.56351e-08
0.000294618
2.63722e-07
0.000224714
0.0389291
3.61734e-08
3.54374e-07
0.00169165
0.00225943
1.75515e-05
0.00128517
3.83775e-08
0.0176612
0.000481202
0.00337699
6.78486e-07
3.10242e-07
0.00200441
0.044812
8.18981e-07
0
0
2.18551e-07
3.69241e-06
5.79398e-07
0.00275799
0.0365642
0.0325772
5.74736e-10
0.00328697
0.000327823
0.000296071
0.0814799
0
0.00124739
0
0.00285921
0.0330358
2.42188e-07
0
5.26237e-08
3.63319e-09
0.0322332
0.0299676
0.000659775
0
0
0.00130645
9.6239e-07
1.21646e-06
0.0488481
0.00416483
0.00211208
1.04184e-10
1.83721e-07
0.000668443
5.18855e-05
0.108094
0.0422058
0.110431
1.36142e-10
7.86263e-10
1.05845e-09
2.99867e-10
6.50541e-08
4.11052e-10
0.000226
0.000230643
0.00582827
0.0904983
0.00784282
0.00412891
2.46998e-06
0
4.82566e-06
4.62883e-05
1.15703e-06
2.53852e-07
0.00678873
1.71978e-08
0.000506708
0.000748189
0.00852088
2.98579e-05
0.000630692
0.0453872
0
0
2.12824e-08
0.0286303
0.0320692
1.25308e-07
8.74937e-09
0.0278807
4.05433e-09
0.0262238
0.0559985
0.0287982
0.0294987
0
2.77071e-08
0.0129456
0.00151369
3.28577e-05
0.00518193
1.10447e-09
0
0.0040504
8.33723e-06
1.18798e-05
8.70637e-06
0.0279442
1.34727e-10
0.027335
0.0333929
1.74701e-06
0
0