# vtk DataFile Version 2.0
Unstructured Grid by M++
ASCII
DATASET UNSTRUCTURED_GRID
POINTS 4072 float
  0.609375   0.843750 0
  0.562500   0.843750 0
  0.531250   0.843750 0
  0.875000   0.828125 0
  0.984375   0.828125 0
  0.953125   0.828125 0
  0.937500   0.828125 0
  0.843750   0.828125 0
  0.812500   0.828125 0
  0.781250   0.828125 0
  0.765625   0.828125 0
  0.734375   0.828125 0
  0.703125   0.828125 0
  0.671875   0.828125 0
  0.640625   0.828125 0
  0.609375   0.828125 0
  0.593750   0.828125 0
  0.562500   0.828125 0
  0.546875   0.828125 0
  0.531250   0.828125 0
  0.515625   0.828125 0
  0.968750   0.812500 0
  0.937500   0.812500 0
  0.921875   0.812500 0
  0.890625   0.812500 0
  0.859375   0.812500 0
  0.828125   0.812500 0
  0.796875   0.812500 0
  0.765625   0.812500 0
  0.750000   0.812500 0
  0.718750   0.812500 0
  0.687500   0.812500 0
  0.656250   0.812500 0
  0.625000   0.812500 0
  0.593750   0.812500 0
  0.578125   0.812500 0
  0.546875   0.812500 0
  0.531250   0.812500 0
  0.515625   0.812500 0
  0.984375   0.796875 0
  0.562500   0.015625 0
  0.953125   0.796875 0
  0.921875   0.796875 0
  0.906250   0.796875 0
  0.875000   0.796875 0
  0.843750   0.796875 0
  0.812500   0.796875 0
  0.781250   0.796875 0
  0.750000   0.796875 0
  0.734375   0.796875 0
  0.703125   0.796875 0
  0.671875   0.796875 0
  0.640625   0.796875 0
  0.609375   0.796875 0
  0.578125   0.796875 0
  0.562500   0.796875 0
  0.531250   0.796875 0
  0.515625   0.796875 0
  0.968750   0.781250 0
  0.546875   0.000000 0
  0.937500   0.781250 0
  0.906250   0.781250 0
  0.890625   0.781250 0
  0.859375   0.781250 0
  0.828125   0.781250 0
  0.796875   0.781250 0
  0.765625   0.781250 0
  0.734375   0.781250 0
  0.718750   0.781250 0
  0.687500   0.781250 0
  0.656250   0.781250 0
  0.625000   0.781250 0
  0.593750   0.781250 0
  0.562500   0.781250 0
  0.546875   0.781250 0
  0.515625   0.781250 0
  0.984375   0.765625 0
  0.953125   0.765625 0
  0.921875   0.765625 0
  0.890625   0.765625 0
  0.875000   0.765625 0
  0.843750   0.765625 0
  0.812500   0.765625 0
  0.781250   0.765625 0
  0.750000   0.765625 0
  0.718750   0.765625 0
  0.703125   0.765625 0
  0.671875   0.765625 0
  0.640625   0.765625 0
  0.609375   0.765625 0
  0.578125   0.765625 0
  0.593750   0.750000 0
  0.562500   0.765625 0
  0.546875   0.765625 0
  0.531250   0.765625 0
  0.562500   0.750000 0
  0.968750   0.750000 0
  0.937500   0.750000 0
  0.906250   0.750000 0
  0.875000   0.750000 0
  0.859375   0.750000 0
  0.828125   0.750000 0
  0.796875   0.750000 0
  0.765625   0.750000 0
  0.734375   0.750000 0
  0.703125   0.750000 0
  0.687500   0.750000 0
  0.671875   0.750000 0
  0.656250   0.750000 0
  0.625000   0.750000 0
  0.546875   0.750000 0
  0.531250   0.750000 0
  0.515625   0.750000 0
  0.562500   0.734375 0
  0.984375   0.734375 0
  0.953125   0.734375 0
  0.921875   0.734375 0
  0.890625   0.734375 0
  0.859375   0.734375 0
  0.843750   0.734375 0
  0.812500   0.734375 0
  0.781250   0.734375 0
  0.750000   0.734375 0
  0.718750   0.734375 0
  0.687500   0.734375 0
  0.671875   0.734375 0
  0.656250   0.734375 0
  0.640625   0.734375 0
  0.546875   0.734375 0
  0.531250   0.734375 0
  0.515625   0.734375 0
  0.562500   0.718750 0
  0.968750   0.718750 0
  0.937500   0.718750 0
  0.906250   0.718750 0
  0.875000   0.718750 0
  0.843750   0.718750 0
  0.796875   0.718750 0
  0.765625   0.718750 0
  0.734375   0.718750 0
  0.703125   0.718750 0
  0.687500   0.718750 0
  0.671875   0.718750 0
  0.656250   0.718750 0
  0.625000   0.718750 0
  0.546875   0.718750 0
  0.531250   0.718750 0
  0.515625   0.718750 0
  0.562500   0.703125 0
  0.953125   0.703125 0
  0.921875   0.703125 0
  0.890625   0.703125 0
  0.859375   0.703125 0
  0.828125   0.703125 0
  0.781250   0.703125 0
  0.750000   0.703125 0
  0.718750   0.703125 0
  0.687500   0.703125 0
  0.656250   0.703125 0
  0.546875   0.703125 0
  0.531250   0.703125 0
  0.515625   0.703125 0
  0.984375   0.687500 0
  0.937500   0.687500 0
  0.921875   0.687500 0
  0.906250   0.687500 0
  0.875000   0.687500 0
  0.843750   0.687500 0
  0.812500   0.687500 0
  0.765625   0.687500 0
  0.734375   0.687500 0
  0.703125   0.687500 0
  0.671875   0.687500 0
  0.640625   0.687500 0
  0.593750   0.687500 0
  0.562500   0.687500 0
  0.546875   0.687500 0
  0.531250   0.687500 0
  0.515625   0.687500 0
  0.968750   0.671875 0
  0.937500   0.671875 0
  0.921875   0.671875 0
  0.906250   0.671875 0
  0.890625   0.671875 0
  0.859375   0.671875 0
  0.828125   0.671875 0
  0.796875   0.671875 0
  0.765625   0.671875 0
  0.750000   0.671875 0
  0.718750   0.671875 0
  0.687500   0.671875 0
  0.656250   0.671875 0
  0.625000   0.671875 0
  0.593750   0.671875 0
  0.578125   0.671875 0
  0.546875   0.671875 0
  0.531250   0.671875 0
  0.515625   0.671875 0
  0.984375   0.656250 0
  0.953125   0.656250 0
  0.937500   0.656250 0
  0.921875   0.656250 0
  0.906250   0.656250 0
  0.875000   0.656250 0
  0.843750   0.656250 0
  0.812500   0.656250 0
  0.781250   0.656250 0
  0.750000   0.656250 0
  0.734375   0.656250 0
  0.703125   0.656250 0
  0.671875   0.656250 0
  0.640625   0.656250 0
  0.609375   0.656250 0
  0.578125   0.656250 0
  0.562500   0.656250 0
  0.531250   0.656250 0
  0.515625   0.656250 0
  0.968750   0.640625 0
  0.937500   0.640625 0
  0.906250   0.640625 0
  0.890625   0.640625 0
  0.859375   0.640625 0
  0.828125   0.640625 0
  0.796875   0.640625 0
  0.765625   0.640625 0
  0.734375   0.640625 0
  0.718750   0.640625 0
  0.687500   0.640625 0
  0.656250   0.640625 0
  0.625000   0.640625 0
  0.593750   0.640625 0
  0.562500   0.640625 0
  0.546875   0.640625 0
  0.515625   0.640625 0
  0.984375   0.625000 0
  0.953125   0.625000 0
  0.921875   0.625000 0
  0.890625   0.625000 0
  0.875000   0.625000 0
  0.843750   0.625000 0
  0.812500   0.625000 0
  0.781250   0.625000 0
  0.750000   0.625000 0
  0.734375   0.625000 0
  0.718750   0.625000 0
  0.703125   0.625000 0
  0.671875   0.625000 0
  0.640625   0.625000 0
  0.609375   0.625000 0
  0.578125   0.625000 0
  0.562500   0.625000 0
  0.546875   0.625000 0
  0.531250   0.625000 0
  0.968750   0.609375 0
  0.937500   0.609375 0
  0.906250   0.609375 0
  0.875000   0.609375 0
  0.859375   0.609375 0
  0.828125   0.609375 0
  0.796875   0.609375 0
  0.765625   0.609375 0
  0.750000   0.609375 0
  0.734375   0.609375 0
  0.718750   0.609375 0
  0.703125   0.609375 0
  0.687500   0.609375 0
  0.656250   0.609375 0
  0.625000   0.609375 0
  0.593750   0.609375 0
  0.562500   0.609375 0
  0.546875   0.609375 0
  0.531250   0.609375 0
  0.515625   0.609375 0
  0.984375   0.593750 0
  0.953125   0.593750 0
  0.921875   0.593750 0
  0.890625   0.593750 0
  0.859375   0.593750 0
  0.843750   0.593750 0
  0.812500   0.593750 0
  0.781250   0.593750 0
  0.750000   0.593750 0
  0.734375   0.593750 0
  0.718750   0.593750 0
  0.687500   0.593750 0
  0.671875   0.593750 0
  0.640625   0.593750 0
  0.609375   0.593750 0
  0.578125   0.593750 0
  0.562500   0.593750 0
  0.546875   0.593750 0
  0.531250   0.593750 0
  0.515625   0.593750 0
  0.968750   0.578125 0
  0.937500   0.578125 0
  0.906250   0.578125 0
  0.875000   0.578125 0
  0.890625   0.562500 0
  0.843750   0.578125 0
  0.828125   0.578125 0
  0.796875   0.578125 0
  0.765625   0.578125 0
  0.734375   0.578125 0
  0.703125   0.578125 0
  0.671875   0.578125 0
  0.656250   0.578125 0
  0.656250   0.562500 0
  0.625000   0.578125 0
  0.640625   0.562500 0
  0.593750   0.578125 0
  0.562500   0.578125 0
  0.546875   0.578125 0
  0.531250   0.578125 0
  0.515625   0.578125 0
  0.859375   0.562500 0
  0.828125   0.562500 0
  0.781250   0.562500 0
  0.750000   0.562500 0
  0.718750   0.562500 0
  0.687500   0.562500 0
  0.609375   0.562500 0
  0.578125   0.562500 0
  0.562500   0.562500 0
  0.546875   0.562500 0
  0.531250   0.562500 0
  0.515625   0.562500 0
  1.000000   0.812500 0
  0.578125   0.031250 0
  0.875000   0.546875 0
  0.625000   0.546875 0
  0.218750   0.000000 0
  0.640625   0.781250 0
  0.828125   0.093750 0
  0.031250   0.531250 0
  0.296875   0.328125 0
  0.296875   0.312500 0
  0.281250   0.312500 0
  0.765625   0.312500 0
  0.031250   0.859375 0
  0.093750   0.265625 0
  0.109375   0.250000 0
  0.187500   0.671875 0
  0.421875   0.640625 0
  0.031250   0.062500 0
  0.140625   0.125000 0
  0.562500   0.906250 0
  0.125000   0.437500 0
  0.203125   0.937500 0
  0.125000   0.421875 0
  0.140625   0.406250 0
  0.093750   0.437500 0
  0.109375   0.421875 0
  0.093750   0.421875 0
  0.109375   0.406250 0
  0.328125   0.125000 0
  0.750000   0.906250 0
  0.328125   0.109375 0
  0.750000   0.890625 0
  0.312500   0.125000 0
  0.734375   0.906250 0
  0.281250   0.343750 0
  0.265625   0.359375 0
  0.500000   0.796875 0
  0.078125   0.015625 0
  0.062500   0.015625 0
  0.484375   0.796875 0
  0.484375   0.781250 0
  0.062500   0.000000 0
  0.015625   0.250000 0
  0.062500   0.046875 0
  0.484375   0.828125 0
  0.484375   0.812500 0
  0.062500   0.031250 0
  0.281250   0.671875 0
  0.062500   0.234375 0
  0.328125   0.765625 0
  0.312500   0.750000 0
  0.015625   0.671875 0
  0.781250   0.187500 0
  0.015625   0.265625 0
  0.453125   0.250000 0
  0.453125   0.234375 0
  0.031250   0.265625 0
  0.046875   0.250000 0
  0.093750   0.015625 0
  0.265625   0.656250 0
  0.734375   0.281250 0
  0.156250   0.015625 0
  0.062500   0.265625 0
  0.046875   0.281250 0
  0.031250   0.281250 0
  0.343750   0.781250 0
  0.328125   0.781250 0
  0.265625   0.687500 0
  0.265625   0.703125 0
  0.156250   0.109375 0
  0.578125   0.890625 0
  0.484375   0.984375 0
  0.062500   0.203125 0
  0.328125   0.718750 0
  0.343750   0.734375 0
  0.343750   0.750000 0
  0.453125   0.500000 0
  0.437500   0.500000 0
  0.234375   0.093750 0
  0.171875   0.375000 0
  0.437500   0.531250 0
  0.468750   0.546875 0
  0.453125   0.546875 0
  0.187500   0.015625 0
  0.187500   0.000000 0
  0.609375   0.781250 0
[...]
CELL_DATA 7648
SCALARS scalar_value float 1
LOOKUP_TABLE default
0.00838702
0.00900987
0.010418
0.00814138
0.0465468
0.0453993
0.0491687
0.0425592
0.00859089
0.00998312
0.0106467
0.0224095
0.0212636
0.0184684
0.00213818
0.00188453
0.00199408
0.00153662
8.9255e-06
8.57812e-06
1.0246e-05
7.38402e-06
2.3251e-06
8.10327e-07
8.88534e-07
1.29012e-06
7.01845e-07
0.0185809
0.0194709
9.20223e-08
1.14766e-07
1.55002e-07
8.92026e-08
2.55997e-07
3.17893e-07
4.16753e-07
2.61393e-07
9.41395e-08
1.24267e-07
1.65642e-07
4.19744e-08
9.30251e-08
0.00670805
0.00838832
0.00814699
0.0520839
0.0568821
0.0642234
6.51232e-07
0.0750723
0.111885
6.70392e-06
9.09753e-07
1.15492e-06
0.00223779
1.1668e-06
0.00267873
0.00173944
2.86079e-07
4.18816e-07
6.13576e-07
3.31905e-06
1.78461e-06
0.00282138
0.00246704
0
0
7.03521e-07
0.000461227
3.22888e-10
0.000276007
0
0.00117149
0.0019901
0.00356544
0
0.0145437
0
0.00312314
0.00357052
0.00459489
0
2.93949e-10
0
0.0724043
3.29297e-07
0.000179558
0.000162991
0.00326631
0
2.41302e-08
0
1.27963e-05
1.71605e-05
0
5.11533e-07
0.00782043
9.03288e-07
0.010536
0.0121816
0.00263756
2.26749e-06
0.00286106
0.00483857
5.09232e-06
0.000159905
0.00148504
0.0670276
0.0576261
1.49517e-08
4.3128e-07
0.00043713
0.000428492
0
2.09296e-05
0
2.64846e-05
1.54561e-05
4.97405e-07
0.0396406
0.0387779
0
0
2.81249e-05
0
0
0
0.0487294
0.0561283
0.0414492
1.43347e-10
0.0213428
0
0.0180346
0.000548068
0.0153185
0.0214569
1.48002e-06
2.51316e-07
0.0454807
0.00411435
0.0488899
0.0524276
1.08382e-07
0.0506756
0.0588437
0.0352518
7.0237e-06
0.10316
0.00269376
0.00249741
1.52492e-06
1.97935e-06
2.5338e-06
0.00338662
0.0029684
0.0441766
1.62486e-07
0.0928618
1.17816e-06
0
1.00541e-05
1.16802e-05
0.000932245
0.0609145
0.06664
1.21003e-07
0.0535711
2.67711e-06
0.077336
0
0.0915946
0.0560022
0.00247625
0.000382847
1.7879e-05
0.0654315
0.038188
0.00040904
0.0436903
0.0485127
0.000536272
0.0763139
0.017186
0
1.24836e-05
0.136175
0
0
0.0212712
0
0.0225742
0.00820986
1.23018e-10
6.86243e-08
0.00888436
0.0106896
0.00846752
0
0
0
0.0575501
1.67226e-05
0.136708
0.129094
1.37087e-05
1.65681e-06
0.0160279
0.0160246
0.014234
1.5301e-07
2.4068e-07
3.57186e-07
2.1612e-07
0.0766575
2.93576e-05
0
0.0838301
0
0.00311571
0.00661862
0.0757299
0.0835305
6.08e-08
0.0709494
1.27381e-08
0.00105884
0.00238033
0.0561857
0.0484992
0.099454
0.0944103
0.0333556
0.000218363
0.123887
0.122864
0.1268
0.119742
0.0235432
0
0.02046
0.00266544
0.000232915
0.00258627
0.00277031
0.0684366
0.000707847
0.061576
0.0683412
8.2926e-09
0.0566447
0.00209318
1.58991e-06
2.10938e-06
2.00512e-06
0.0149591
0.0001013
0.00461554
0.00487205
6.87613e-06
8.34897e-06
8.11334e-06
0.0261622
1.94821e-07
5.51011e-08
0.0647287
1.23666e-07
0.0703999
8.60639e-08
0.0515159
0.135144
6.33531e-06
0
0.0355629
0.00335199
2.93349e-08
0.0983231
0.0063535
0.000149223
0.000183904
3.31301e-08
0.0135112
0.00462495
0.00452415
0.000334901
0.0159082
0.00444792
3.60211e-08
1.02188e-08
0.0193182
1.75495e-08
0.01398
0.0011347
1.22633e-09
0.000168015
0.000169513
1.66114e-09
0.000208335
0
0.00266553
1.02784e-05
0.00049061
0.0120209
0.0031722
4.84245e-06
3.95254e-06
3.50428e-06
2.19759e-05
0.0077685
6.96475e-05
5.27787e-05
0.0230027
0.0190004
3.12887e-10
0.00520487
0.00232509
2.58794e-05
0.00493825
2.06507e-05
0.00155412
1.54108e-05
3.33097e-06
0.0104913
0.0143647
0.0227128
9.02204e-05
1.97203e-05
0.0135822
0.0177916
4.2774e-05
0.0129516
1.45374e-06
0.0586187
0.0070199
0.0164355
0.00654448
0.0151539
0.0512519
0.0451077
5.79195e-06
0.00811438
0.065426
0.0572064
0
0.0294455
0.00360347
0.00482889
0.00760536
6.42801e-09
0
0
0
9.82014e-06
0.0189077
4.31757e-09
0.0180216
1.61076e-08
0.0361912
0.0325664
0.030285
0.00012731
0.000105302
0.000114427
0.00092419
0.0168049
0.00566974
0.0148741
1.81464e-10
3.49528e-09
2.31857e-09
0.0191846
0.000740776
1.37225e-08
0.046939
8.08319e-09
0.0606578
0.00310231
1.90093e-09
0.000677008
4.06117e-06
0.000125019
0.0208469
0.000129083
0.000858432
0.0628622
0.00105871
0.0637024
0.000471029
6.26263e-08
0.0285944
0.0225005
0.00146652
0.0469821
0.0367163
0.0512386
5.91652e-07
7.97149e-07
0.0515911
0.00437225
0.00184976
1.51365e-07
0.0632926
0.0144918
0.000514453
0.0168986
0.00123722
3.11754e-08
0.0310428
0.0652385
4.33619e-07
0.00577948
0.00536008
0.0035124
0.00446693
0.000498038
0.00123272
0
0.00118634
8.64492e-09
0.000515805
0.0262323
0.000815345
0.0108883
2.8414e-06
7.89991e-06
6.99387e-06
0.0328507
7.16356e-06
0.00740623
4.01436e-07
0.0132437
1.3556e-05
3.05589e-07
2.77697e-09
3.36501e-07
1.97182e-07
7.26232e-08
0
0.0719374
0.0145689
3.60778e-05
0.0118256
4.55586e-06
5.72483e-06
0.016046
7.70698e-06
0.0155924
0.0128338
0.00974386
0.0126857
0.0998082
1.63668e-05
2.91093e-07
1.29362e-05
0.0105747
4.32961e-07
5.5717e-07
4.71875e-07
0.00337263
0.00594743
0.0668792
1.11798e-05
0.00783192
0.00577105
0
2.21737e-07
1.81099e-07
1.53009e-09
0
6.3799e-09
0.0427422
1.13014e-09
0.00018779
0
1.68717e-09
0.000179199
2.41907e-06
0.00386169
0
0.0167101
0
0.000105847
1.2089e-10
0
0.0284508
0.0343482
0.0406131
0.016005
2.06707e-05
3.1589e-05
1.48672e-10
3.39805e-05
2.08171e-10
0.00014721
0.00297872
0
1.12744e-05
0.0331848
0.00266972
2.35642e-07
1.76371e-07
0.0105487
0.00113445
1.55031e-07
1.1451e-07
0.0626743
5.65716e-07
4.42499e-07
4.11783e-07
3.37384e-07
0.0460793
0.00552339
5.52757e-07
1.93256e-09
0.00671627
1.04677e-07
0.0541495
4.3767e-07
9.90953e-08
0.0561536
3.50428e-07
0.0573322
1.76046e-07
2.95666e-07
0.00350114
0.000566584
0.101089
0.04218
0.000566347
0.00040756
0.0352491
7.89394e-08
0.0137372
1.09475e-07
0.000442576
0.120683
0.000607709
0.110825
0.000351161
0.000831699
0.000465936
0.000858304
1.43284e-07
1.48352e-07
0.0560889
0.00053834
0.00321622
0.000443585
0.00299079
0.000530989
0.000402137
0.110557
0.000653442
0.000572189
0.00288562
0.00288225
0.00386343
0.0943812
5.08556e-07
2.35829e-07
0.0859414
6.97394e-08
2.37138e-08
1.16816e-07
0.00491197
0.000361634
5.49417e-06
0.00565225
0.00519159
0.00720138
3.61168e-06
0.00380226
0.000455957
0.0376099
1.09253e-07
0.000398604
0.133752
5.42805e-08
0.00346543
1.04621e-05
0.00195499
0.00191217
2.82906e-08
4.52987e-08
0.00374856
1.78554e-08
0.0043592
0.0620029
3.87964e-08
0.115037
0.122057
2.50184e-10
1.59933e-07
2.52589e-07
0.13209
5.79554e-07
0.000895455
0.042716
1.50584e-07
0.0572625
2.17362e-07
1.42119e-07
6.26168e-08
9.30816e-08
0.0439195
0.0030353
1.13734e-07
0.0110718
0.000663545
0.0603269
0.0572406
0.0556038
0.0210337
0.0189963
0.0207976
7.48348e-06
0.0223876
6.23802e-06
2.83138e-07
4.50721e-08
0.0210372
6.88817e-08
8.47159e-08
1.62868e-07
0.00402172
2.06438e-07
1.35281e-07
3.38824e-08
4.91344e-08
9.12497e-08
1.42943e-07
0.0055133
2.59807e-08
3.14039e-08
0.111816
0.000126029
0.110289
0.0324826
0.00109602
0.000967445
0.023203
0.0191538
0.00228426
0.155469
0.0165749
0.0637294
0.0183467
4.14761e-09
6.80523e-09
0
9.01238e-05
0.0434648
0.0491042
1.4789e-08
0
0.000316523
2.13013e-08
0.000247426
0.000775018
0.000159963
0.0071774
0.0199592
0.000124785
1.90587e-07
1.67423e-06
0.0853415
2.0733e-07
1.97702e-06
0
0
0
1.18126e-06
0.0579639
3.47978e-07
0.0504123
9.6041e-06
0.00438102
0.00463598
0.00578783
0.0595601
0.0630415
0.0604523
0.0118355
0
0.00176492
0.0850377
0.109127
0.071472
3.31459e-08
0.00156137
0.0783232
0.0864399
9.57184e-08
0.00230361
0.0792527
0.0942358
0.0034806
4.74372e-06
0.0367281
0.0247398
0.0211006
0.00406805
0.0213545
0.000131861
0.0159207
6.0784e-05
0.0112746
0.0133217
0.0943888
0.101837
0.142352
0.142493
0.145268
0.0245493
0.0183443
0.113869
0.120345
1.4784e-05
8.71399e-05
0.12249
0.121283
0.0139259
0.0145607
0.012518
0.11225
0.119812
0.0556806
0.122475
0.00841621
0.00980878
0.0114194
0.106066
0.114562
0.118835
2.33877e-06
1.4277e-06
0.00231002
0.105208
0.105337
0.110753
0.00430333
0.114063
0.127181
0.119214
7.27814e-07
0.00471472
0.000162221
0.00584373
0.0112568
2.56673e-06
0.0778548
0.0866438
0.0921387
5.16551e-08
1.24649e-07
7.03101e-08
8.12463e-08
0.00146325
0.00111345
4.15755e-09
0.0066613
3.25512e-05
4.59326e-09
9.02476e-09
0.000162794
2.20581e-08
0.00254937
0.138531
0.000403288
0.000278189
0.00029285
0.000237433
0.00047082
0.00041483
0.00035961
0.000311759
1.11642e-07
0.00041489
0.000369749
0.0110837
0.0133202
9.41504e-05
0.00016551
0
0.00383623
0
0.00813075
0.00986461
0.013989
0.000196667
0.000172592
3.90976e-08
3.11098e-05
4.18686e-06
0.00424745
6.33203e-05
2.55161e-06
0.0040293
3.72653e-09
0.00590771
7.23631e-10
1.69784e-08
0.00450701
1.38905e-05
0.00839944
9.40791e-09
0.0496037
0.0117585
4.32437e-05
1.84387e-05
0.00925997
2.4255e-09
0.000198241
0.00339825
0.000174196
0.000191354
0.00917639
0.000242529
0.0563817
0.0561685
4.15104e-08
0.00272619
0.00356254
4.79756e-08
2.54778e-08
0.0540388
0.0190225
0.0335297
4.67569e-10
0.0204722
9.15494e-10
7.5147e-05
0.0478887
0.0487478
0.0415564
0.000216233
0.000196595
0.0136718
0.00661239
0.0056014
9.76873e-07
0.0222191
0.0258344
0
1.56871e-05
0.110423
0.00473488
4.89089e-07
3.62237e-06
0.112174
0.0019498
0.00128052
0.0739246
0.0794854
0.00236828
0.0765943
5.03933e-08
0.0169451
0.000389387
0.00247204
0.0786279
9.61418e-07
0.0851678
0.00272436
1.68157e-07
0
0.01341
2.00976e-06
0.062867
3.75595e-06
9.66344e-06
0.0078837
8.45616e-06
0
0
0
1.24077e-05
4.34424e-06
0
0.0282969
0
0.0157654
3.25159e-06
3.54331e-06
0
1.85126e-05
0.0112761
0.0157794
3.92776e-05
0
0
0.00932355
0.0108543
0.00874376
0.072455
0.00733849
0
0
0.00721311
0.00887753
0.000170973
0.00584261
0.00349648
5.06863e-09
0
2.5991e-06
0.00420788
2.77892e-06
1.70733e-06
0.0106163
2.30483e-05
1.01399e-05
0.0079947
0.0673221
0.0759658
0
1.54688e-06
0.12609
1.95887e-06
1.94306e-06
3.78241e-06
0.053646
2.01088e-05
2.27095e-06
9.95545e-07
3.35273e-05
0.0138275
3.33504e-06
0.015194
0.0106979
0.0599508
7.28976e-10
0.010609
0.0126822
0.0150899
0.0253305
0.000129141
0.0189731
6.78755e-05
3.32116e-05
0.0137861
0.00757054
2.52358e-06
0.00813129
1.21359e-05
0.00863111
0.0661576
0
0.000479777
2.54169e-09
0.000373198
1.32808e-06
2.53688e-06
0.000784873
3.95745e-05
0.00153966
0.0225701
8.36398e-10
3.75713e-10
3.64194e-07
0.0638363
0.0705247
0
0.00349175
1.21465e-09
0
2.76859e-10
0.00693758
8.09425e-06
0.00194338
0
0.0706323
3.06998e-06
0
0.010897
0.00986186
0.112586
0.0168699
0.116774
0.104603
0.0552085
0.114867
0.00330376
1.79637e-05
0.147704
0.0217588
7.94961e-06
0.141295
0.14488
5.12567e-07
0.002114
1.90524e-05
0
0.0098693
0.0338663
0.000325502
0.000181249
0.0277472
0.128545
0.00101741
0
0.0245431
1.43326e-05
0.140943
0.114453
0.0491151
0.114401
0.0625153
0.000827116
0.00162818
0.108028
0.00394653
0.00140945
0.0441037
0.000355661
0.000671853
0.00390858
8.01903e-06
0.0227772
0.00030253
0.00864677
1.37147e-05
0.128398
0.00436891
7.13754e-05
3.17384e-05
0.0102676
0.0147196
4.45255e-10
0.0320989
1.37005e-08
2.88889e-09
1.1645e-08
0.00151012
4.42995e-09
0.014194
0.000156829
0.00584868
0.0448383
4.85443e-05
0.021407
0.0119648
2.70884e-05
6.40747e-08
4.92929e-09
1.84758e-07
0.00369853
0
0
0
4.00892e-06
0.0521999
0.000210736
0.0747729
0.0577934
0.0739247
3.16518e-05
5.67143e-06
0.11857
0.0024089
8.02647e-06
0.0412695
0.0600617
2.62934e-05
2.65309e-06
9.56939e-09
3.25342e-06
3.5069e-05
0.00990088
0.102051
0.0387079
0.116759
2.10453e-06
1.40355e-06
1.61975e-06
2.42188e-06
0.016265
0.0377553
0.00342173
0
0.0208743
0.0496573
0
0.000784388
0.108605
6.11031e-07
0.0510613
0.0020779
0.00337288
0
8.50635e-07
0.000544452
0.0168707
0
0.0231527
3.61278e-08
0.0151672
0.000244571
0.0015279
0.0228778
0
4.60036e-08
8.72633e-07
0.00145554
0.0276417
0.000218951
3.86171e-08
0.021193
0.0555416
2.9372e-07
4.60859e-05
0.0200851
0.0245056
0.000101792
8.49122e-09
0.00201388
0.0168433
0
0.000678339
0
1.45942e-06
1.28661e-06
0
7.95035e-06
0
0.0037984
0.0571037
0.0188315
1.66963e-09
0.0193123
1.9692e-07
0.00144749
0.00871364
1.17859e-05
1.21371e-06
0.110699
0.000378339
6.09739e-08
0.0223146
1.03079e-08
0.0219534
0.000761169
0.00296258
0.0926694
3.14509e-06
0.0193889
3.52911e-06
0.0222314
0.00159962
2.81601e-07
5.10785e-08
0.0211047
5.26655e-09
3.79476e-07
1.49588e-08
0.0181084
8.56114e-10
0.0791233
4.58482e-06
0.00465523
0.0075719
1.00749e-05
2.15532e-06
4.23929e-08
1.08659e-06
0.00301002
1.92033e-05
0.109692
0.0794166
0.000111405
0.00451283
7.46679e-06
0.00713439
0.0109974
0.0695021
0.00261525
0.00641141
6.07575e-06
0.0177788
0.0132113
0.0018624
0.0675504
0.00249867
0
0.0179732
0.0746292
0
0.00353429
1.97009e-07
0.0539504
0.00461599
1.39624e-10
5.7682e-06
0.0678462
0.0723578
2.95655e-06
9.97981e-06
0.000995528
0.00340599
0
0.0568517
0.00128209
0.00482495
3.34133e-06
1.93488e-05
2.27383e-10
9.74842e-05
0.00422648
0
0.00180751
0
0.0621765
0.0389216
8.58589e-08
0.00366261
0
0.0383959
0.00365951
0.00691652
0.030362
0.00412129
0
4.59581e-06
0.000358915
0.000331341
2.6082e-09
0
4.40772e-08
3.61909e-07
4.30911e-06
0.0992063
0
1.61325e-07
0.086924
0.0712359
8.87554e-08
0.108102
0.00497082
0.107487
0.0925162
0.0105335
0.0475718
0.0266703
0.0852938
0.00271941
0.0915478
2.73381e-07
0.0835914
3.67267e-05
1.45827e-07
0.0598964
0.000104968
0.000158747
0.0169377
1.87628e-06
0.0129763
6.44025e-05
0.000105042
9.50061e-09
7.51509e-07
0.0815439
0.0385112
1.42567e-05
0.0148792
0.0046957
0.00372166
0
0.0429802
0.00184533
0
0.0210544
0.00344205
0.0737838
0.0181639
0.00328901
0.00477667
3.12854e-07
0.0698066
4.66075e-07
1.95537e-07
0.00049736
0.00172729
0
0.0938214
0.000184137
0.00403721
0.00131501
0
0.00295444
0.013537
0
0
0.00036347
2.60785e-10
1.04686e-07
1.82308e-08
0.0155657
0.000891865
0.0111495
0
0
0.00722237
0
0
0.00355204
0
0.00856817
0
0
3.98794e-06
0.0047239
0.00742941
8.82612e-06
7.90879e-10
0
0.0343712
0.0351554
0.000264648
0.0375172
0.0494025
0.000374125
2.31409e-10
3.89057e-08
0.00270269
0.00109835
5.1864e-10
6.98445e-10
3.30634e-09
0.00384694
0.000187804
2.12445e-05
8.75504e-05
1.72887e-10
6.44352e-08
3.2671e-10
7.27413e-09
1.32951e-10
0.00338219
5.37256e-05
0
0.000111088
0.024585
0.000249023
0.000269946
0.040749
0.083076
0.000207155
0
0.000680543
0
0.0827594
0
5.02178e-05
0.0208117
0.000117088
2.28771e-07
0.0577907
1.23992e-06
0
0.0275105
0.000237396
0.0274177
0.00427124
0.0148336
0.0509096
0.000316237
6.06916e-06
1.52889e-05
0.0833514
0.0827623
0.00265097
1.78559e-06
0.00949855
1.56515e-05
0
0
5.51341e-07
0.000625565
0.0557307
0.0598238
0.00109975
0.00647422
7.15046e-06
0
0.11528
0.0367114
0.0336822
0
0.0695627
0.000479755
0.0971714
3.08391e-07
0.0492829
0.00270632
0.156184
0.00385228
0
0.0176916
1.10965e-05
0.154145
0.0340845
0.00647044
0.00430824
2.09588e-07
1.5248e-07
0
3.00713e-05
0.0124274
0.000278916
0.000105517
6.63124e-08
1.12877e-10
0.00306899
1.68637e-06
0.0138525
0.13969
0.132856
0.134875
0.154375
8.72601e-05
0
0.100574
0.153143
0
6.73849e-06
0.00911244
0.0135721
1.46722e-05
1.64094e-08
0.156046
0.000865118
0.0466017
2.85019e-07
0.0133941
5.20315e-08
5.87877e-08
8.04354e-05
0.130813
7.89238e-10
0.15475
0.0383862
0.000350729
0.0530593
0.0129938
0.0237236
0
0.134236
0.117767
0.111787
0.00201194
0.141839
0.0468188
0.00151434
0.15392
0.024172
1.65298e-08
0.0915953
2.39829e-07
0.000367411
0.155229
0.0862957
9.06823e-06
0.154896
0.0871524
0.000284736
0.0509498
0.0532888
0.000389422
0.155972
0.0186887
0.00205154
0.00915279
0.0722579
0.0816181
0
0.0777281
3.14475e-07
7.52918e-05
2.98675e-08
0.00422525
5.37937e-05
0.0153681
7.17238e-07
0.0635571
0
0.0135529
0.111063
0.00601882
0.00384852
0.102215
0.00401578
0.00379728
0.0133252
5.74714e-10
0.156613
0.0462903
0.00336019
0.000463908
0.0182462
0.0262909
7.65797e-09
0.0982393
0.0148848
1.39752e-05
0.000630141
0.00543173
0
0.00409939
1.00304e-05
0.00162036
0.029536
0.00041289
0.00156126
1.32042e-05
2.64344e-05
0.0193217
0.0211474
0.0895851
2.64573e-07
0.0665023
0.0125505
0.0722903
0.0791572
0.00262639
0.150993
2.19919e-05
8.1593e-06
0.0353655
0.000140721
0.0115729
1.58623e-05
0.151981
2.56312e-08
0.000695708
0.156677
0.0626517
0
0.00507868
0.0230691
0.00799081
0.0164521
0
0.00193966
9.18245e-05
0.0553226
1.35671e-07
0.0498582
0.000415113
9.09737e-07
0.00135902
0.00259679
2.05561e-06
0.0782002
1.24135e-06
0.000439852
0.0554171
1.05201e-07
0.00206835
0.0801253
0.00395129
1.07213e-07
0.000482623
0.106332
9.49147e-07
0.0286857
1.43794e-06
1.97666e-06
0.0185263
0.0148858
0.000551384
0.00806711
0
0
2.60327e-05
0.0014533
0.0110198
0
0.00716843
0.0101378
3.47281e-05
1.14207e-08
3.90483e-06
7.59497e-05
1.26612e-05
0.0648813
3.97846e-06
0.0848614
1.08938e-06
1.1566e-06
0
4.02987e-06
0
0
0.00934154
0.125174
1.89741e-05
0
0.0761738
5.88238e-05
7.8883e-06
6.52651e-05
1.18024e-09
0.0220639
0.0881125
0.000214905
0.0295497
0.0471691
2.48907e-05
3.74281e-05
3.4386e-09
0.00396508
1.19985e-06
5.44891e-07
0.00155809
0.027902
3.39641e-05
0.00830053
7.64854e-06
0.00772045
0.0223078
0.137257
1.55095e-09
0.00471168
0.092562
0.0181546
0.0425343
0.000303708
0.0848497
0.104756
0.0415849
0.00952857
0.0805577
2.49558e-05
5.95339e-05
0.00181823
0.00116834
0.0365449
1.65338e-07
0.00242476
0.0610378
0.00415438
0.0555676
2.00454e-07
7.4391e-08
0.00157922
0.0786994
0.00199423
0.000834138
0.063399
0.0112545
0.0847749
0.0993319
0.000579239
0.0418444
0.112145
0.150068
0.00643552
0
0.0176667
0.000325365
0.0436161
0
0.0262356
6.26827e-06
0.136065
2.91342e-05
0.0104471
1.02506e-05
9.68314e-10
0.00308549
4.16773e-06
0.0102482
0.155915
3.35493e-06
0.000378339
1.08384e-05
0.130502
7.27054e-05
7.53552e-08
1.03012e-06
0.00166303
0.124009
0.1301
0.0367801
0.00383391
2.1305e-05
0.149906
0.0236497
0.0846366
0.0901656
0.0688636
1.28166e-07
0.000995789
0.0467262
0.00683013
0.00545598
0.0605964
0.118633
0.0965037
1.9567e-09
1.34258e-07
0.0496158
0.00046671
0.000307638
0.0389886
0.0177961
5.4811e-06
0.00719126
0.0883878
0.0886699
0.0748736
0.0839044
2.86593e-07
0.0910005
1.59987e-05
0.0810446
3.08459e-07
0.0826043
5.29212e-08
0.00245582
2.8664e-08
0.0476738
0.00351393
0.000260105
3.03715e-05
0.0130031
0.019088
0.000291237
0.00959663
2.52928e-08
0.0224456
0.000214477
5.57218e-10
1.2049e-08
0.0355026
0.00614259
4.8946e-09
0.0684787
8.53789e-07
0
0
0.0505283
7.06546e-08
0
0.00298212
0.00544925
3.30868e-06
0.00916913
1.39983e-05
0
0.000114025
8.30271e-06
1.27011e-05
0.00284859
2.48625e-06
0.0810387
2.27067e-06
0
0
0.020501
0.00024076
2.61985e-06
6.75181e-07
0.0697937
0
0.00320543
0
0.0706977
0.00312907
8.96031e-07
0.0652023
0.00497281
0
0
0.00382221
0.0865001
6.72748e-07
0.016057
6.32965e-05
1.68823e-09
0.0114993
0.0868473
0.0117366
0.0961282
0.0124102
0.0126118
0.000320753
0.0901309
0.0102209
6.12395e-08
6.51466e-07
1.11043e-05
0.141097
3.93124e-05
9.57553e-06
0.143107
5.50287e-07
0.0359654
0.0773757
0.155079
0.000894878
2.03376e-09
2.24284e-08
0.0184026
0.00329253
0
0.000230924
0.000278398
0.0647812
0.0242907
0.004339
0.0122702
0.0397237
0.000235749
0.00174625
0
0
0.0270384
0
0.0092743
0.00345454
1.54229e-06
2.41129e-08
0.00492556
0.156634
0.0542293
5.15789e-07
8.25832e-07
6.70052e-07
8.00285e-07
0.00247215
4.30904e-07
0.00231126
0.000486145
0.139723
4.70053e-08
0.0585738
5.38786e-07
0.00327657
6.97265e-07
8.0816e-08
7.54693e-07
0.092183
0.127771
8.65761e-07
0.00281424
3.60777e-06
0.00224052
0.0702875
3.61307e-07
4.76141e-06
0.0106802
0.0164082
0.000215394
0.00752286
5.81589e-07
0.0734835
0.00143599
0.0104147
6.34633e-06
2.90135e-06
0.00633185
0.120858
1.07091e-05
0
0
2.13852e-06
3.65282e-05
6.00085e-06
0.0108079
0.0657225
0.0594441
9.56285e-09
0.00358355
0.00113663
0.00112229
0.155571
0
0.00944602
0
0.00407262
0.0747091
2.79454e-06
0
8.27004e-07
5.95498e-08
0.0503407
0.0482261
0.0046335
0
0
0.00874744
1.2151e-05
1.8779e-05
0.0907039
0.00415216
0.015509
1.71926e-09
2.98949e-06
0.00222642
0.000271505
0.0944145
0.0269815
0.090947
2.29889e-09
1.3235e-08
1.78693e-08
5.06437e-09
9.18167e-07
6.95985e-09
0.000744685
0.000766448
0.00726958
0.063294
0.0259417
0.00952447
1.90687e-05
4.33644e-10
5.53799e-05
0.000516126
1.8061e-05
4.10111e-06
0.0024611
2.66469e-07
0.00429714
0.00605037
0.00308543
0.000350745
0.00526486
0.0791647
0
0
2.15223e-07
0.0542247
0.0634092
1.3064e-06
1.00094e-07
0.0569486
6.77835e-08
0.0568571
0.0728785
0.0491991
0.0524908
4.30043e-10
4.27695e-07
0.0605959
0.00508038
0.000389125
0.0229688
1.26172e-08
0
0.00447417
0.000102443
0.000141527
0.000105779
0.030048
2.26966e-09
0.0284366