# vtk DataFile Version 2.0
Unstructured Grid by M++
ASCII
DATASET UNSTRUCTURED_GRID
POINTS 4072 float
  0.609375   0.843750 0
  0.562500   0.843750 0
  0.531250   0.843750 0
  0.875000   0.828125 0
  0.984375   0.828125 0
  0.953125   0.828125 0
  0.937500   0.828125 0
  0.843750   0.828125 0
  0.812500   0.828125 0
  0.781250   0.828125 0
  0.765625   0.828125 0
  0.734375   0.828125 0
  0.703125   0.828125 0
  0.671875   0.828125 0
  0.640625   0.828125 0
  0.609375   0.828125 0
  0.593750   0.828125 0
  0.562500   0.828125 0
  0.546875   0.828125 0
  0.531250   0.828125 0
  0.515625   0.828125 0
  0.968750   0.812500 0
  0.937500   0.812500 0
  0.921875   0.812500 0
  0.890625   0.812500 0
  0.859375   0.812500 0
  0.828125   0.812500 0
  0.796875   0.812500 0
  0.765625   0.812500 0
  0.750000   0.812500 0
  0.718750   0.812500 0
  0.687500   0.812500 0
  0.656250   0.812500 0
  0.625000   0.812500 0
  0.593750   0.812500 0
  0.578125   0.812500 0
  0.546875   0.812500 0
  0.531250   0.812500 0
  0.515625   0.812500 0
  0.984375   0.796875 0
  0.562500   0.015625 0
  0.953125   0.796875 0
  0.921875   0.796875 0
  0.906250   0.796875 0
  0.875000   0.796875 0
  0.843750   0.796875 0
  0.812500   0.796875 0
  0.781250   0.796875 0
  0.750000   0.796875 0
  0.734375   0.796875 0
  0.703125   0.796875 0
  0.671875   0.796875 0
  0.640625   0.796875 0
  0.609375   0.796875 0
  0.578125   0.796875 0
  0.562500   0.796875 0
  0.531250   0.796875 0
  0.515625   0.796875 0
  0.968750   0.781250 0
  0.546875   0.000000 0
  0.937500   0.781250 0
  0.906250   0.781250 0
  0.890625   0.781250 0
  0.859375   0.781250 0
  0.828125   0.781250 0
  0.796875   0.781250 0
  0.765625   0.781250 0
  0.734375   0.781250 0
  0.718750   0.781250 0
  0.687500   0.781250 0
  0.656250   0.781250 0
  0.625000   0.781250 0
  0.593750   0.781250 0
  0.562500   0.781250 0
  0.546875   0.781250 0
  0.515625   0.781250 0
  0.984375   0.765625 0
  0.953125   0.765625 0
  0.921875   0.765625 0
  0.890625   0.765625 0
  0.875000   0.765625 0
  0.843750   0.765625 0
  0.812500   0.765625 0
  0.781250   0.765625 0
  0.750000   0.765625 0
  0.718750   0.765625 0
  0.703125   0.765625 0
  0.671875   0.765625 0
  0.640625   0.765625 0
  0.609375   0.765625 0
  0.578125   0.765625 0
  0.593750   0.750000 0
  0.562500   0.765625 0
  0.546875   0.765625 0
  0.531250   0.765625 0
  0.562500   0.750000 0
  0.968750   0.750000 0
  0.937500   0.750000 0
  0.906250   0.750000 0
  0.875000   0.750000 0
  0.859375   0.750000 0
  0.828125   0.750000 0
  0.796875   0.750000 0
  0.765625   0.750000 0
  0.734375   0.750000 0
  0.703125   0.750000 0
  0.687500   0.750000 0
  0.671875   0.750000 0
  0.656250   0.750000 0
  0.625000   0.750000 0
  0.546875   0.750000 0
  0.531250   0.750000 0
  0.515625   0.750000 0
  0.562500   0.734375 0
  0.984375   0.734375 0
  0.953125   0.734375 0
  0.921875   0.734375 0
  0.890625   0.734375 0
  0.859375   0.734375 0
  0.843750   0.734375 0
  0.812500   0.734375 0
  0.781250   0.734375 0
  0.750000   0.734375 0
  0.718750   0.734375 0
  0.687500   0.734375 0
  0.671875   0.734375 0
  0.656250   0.734375 0
  0.640625   0.734375 0
  0.546875   0.734375 0
  0.531250   0.734375 0
  0.515625   0.734375 0
  0.562500   0.718750 0
  0.968750   0.718750 0
  0.937500   0.718750 0
  0.906250   0.718750 0
  0.875000   0.718750 0
  0.843750   0.718750 0
  0.796875   0.718750 0
  0.765625   0.718750 0
  0.734375   0.718750 0
  0.703125   0.718750 0
  0.687500   0.718750 0
  0.671875   0.718750 0
  0.656250   0.718750 0
  0.625000   0.718750 0
  0.546875   0.718750 0
  0.531250   0.718750 0
  0.515625   0.718750 0
  0.562500   0.703125 0
  0.953125   0.703125 0
  0.921875   0.703125 0
  0.890625   0.703125 0
  0.859375   0.703125 0
  0.828125   0.703125 0
  0.781250   0.703125 0
  0.750000   0.703125 0
  0.718750   0.703125 0
  0.687500   0.703125 0
  0.656250   0.703125 0
  0.546875   0.703125 0
  0.531250   0.703125 0
  0.515625   0.703125 0
  0.984375   0.687500 0
  0.937500   0.687500 0
  0.921875   0.687500 0
  0.906250   0.687500 0
  0.875000   0.687500 0
  0.843750   0.687500 0
  0.812500   0.687500 0
  0.765625   0.687500 0
  0.734375   0.687500 0
  0.703125   0.687500 0
  0.671875   0.687500 0
  0.640625   0.687500 0
  0.593750   0.687500 0
  0.562500   0.687500 0
  0.546875   0.687500 0
  0.531250   0.687500 0
  0.515625   0.687500 0
  0.968750   0.671875 0
  0.937500   0.671875 0
  0.921875   0.671875 0
  0.906250   0.671875 0
  0.890625   0.671875 0
  0.859375   0.671875 0
  0.828125   0.671875 0
  0.796875   0.671875 0
  0.765625   0.671875 0
  0.750000   0.671875 0
  0.718750   0.671875 0
  0.687500   0.671875 0
  0.656250   0.671875 0
  0.625000   0.671875 0
  0.593750   0.671875 0
  0.578125   0.671875 0
  0.546875   0.671875 0
  0.531250   0.671875 0
  0.515625   0.671875 0
  0.984375   0.656250 0
  0.953125   0.656250 0
  0.937500   0.656250 0
  0.921875   0.656250 0
  0.906250   0.656250 0
  0.875000   0.656250 0
  0.843750   0.656250 0
  0.812500   0.656250 0
  0.781250   0.656250 0
  0.750000   0.656250 0
  0.734375   0.656250 0
  0.703125   0.656250 0
  0.671875   0.656250 0
  0.640625   0.656250 0
  0.609375   0.656250 0
  0.578125   0.656250 0
  0.562500   0.656250 0
  0.531250   0.656250 0
  0.515625   0.656250 0
  0.968750   0.640625 0
  0.937500   0.640625 0
  0.906250   0.640625 0
  0.890625   0.640625 0
  0.859375   0.640625 0
  0.828125   0.640625 0
  0.796875   0.640625 0
  0.765625   0.640625 0
  0.734375   0.640625 0
  0.718750   0.640625 0
  0.687500   0.640625 0
  0.656250   0.640625 0
  0.625000   0.640625 0
  0.593750   0.640625 0
  0.562500   0.640625 0
  0.546875   0.640625 0
  0.515625   0.640625 0
  0.984375   0.625000 0
  0.953125   0.625000 0
  0.921875   0.625000 0
  0.890625   0.625000 0
  0.875000   0.625000 0
  0.843750   0.625000 0
  0.812500   0.625000 0
  0.781250   0.625000 0
  0.750000   0.625000 0
  0.734375   0.625000 0
  0.718750   0.625000 0
  0.703125   0.625000 0
  0.671875   0.625000 0
  0.640625   0.625000 0
  0.609375   0.625000 0
  0.578125   0.625000 0
  0.562500   0.625000 0
  0.546875   0.625000 0
  0.531250   0.625000 0
  0.968750   0.609375 0
  0.937500   0.609375 0
  0.906250   0.609375 0
  0.875000   0.609375 0
  0.859375   0.609375 0
  0.828125   0.609375 0
  0.796875   0.609375 0
  0.765625   0.609375 0
  0.750000   0.609375 0
  0.734375   0.609375 0
  0.718750   0.609375 0
  0.703125   0.609375 0
  0.687500   0.609375 0
  0.656250   0.609375 0
  0.625000   0.609375 0
  0.593750   0.609375 0
  0.562500   0.609375 0
  0.546875   0.609375 0
  0.531250   0.609375 0
  0.515625   0.609375 0
  0.984375   0.593750 0
  0.953125   0.593750 0
  0.921875   0.593750 0
  0.890625   0.593750 0
  0.859375   0.593750 0
  0.843750   0.593750 0
  0.812500   0.593750 0
  0.781250   0.593750 0
  0.750000   0.593750 0
  0.734375   0.593750 0
  0.718750   0.593750 0
  0.687500   0.593750 0
  0.671875   0.593750 0
  0.640625   0.593750 0
  0.609375   0.593750 0
  0.578125   0.593750 0
  0.562500   0.593750 0
  0.546875   0.593750 0
  0.531250   0.593750 0
  0.515625   0.593750 0
  0.968750   0.578125 0
  0.937500   0.578125 0
  0.906250   0.578125 0
  0.875000   0.578125 0
  0.890625   0.562500 0
  0.843750   0.578125 0
  0.828125   0.578125 0
  0.796875   0.578125 0
  0.765625   0.578125 0
  0.734375   0.578125 0
  0.703125   0.578125 0
  0.671875   0.578125 0
  0.656250   0.578125 0
  0.656250   0.562500 0
  0.625000   0.578125 0
  0.640625   0.562500 0
  0.593750   0.578125 0
  0.562500   0.578125 0
  0.546875   0.578125 0
  0.531250   0.578125 0
  0.515625   0.578125 0
  0.859375   0.562500 0
  0.828125   0.562500 0
  0.781250   0.562500 0
  0.750000   0.562500 0
  0.718750   0.562500 0
  0.687500   0.562500 0
  0.609375   0.562500 0
  0.578125   0.562500 0
  0.562500   0.562500 0
  0.546875   0.562500 0
  0.531250   0.562500 0
  0.515625   0.562500 0
  1.000000   0.812500 0
  0.578125   0.031250 0
  0.875000   0.546875 0
  0.625000   0.546875 0
  0.218750   0.000000 0
  0.640625   0.781250 0
  0.828125   0.093750 0
  0.031250   0.531250 0
  0.296875   0.328125 0
  0.296875   0.312500 0
  0.281250   0.312500 0
  0.765625   0.312500 0
  0.031250   0.859375 0
  0.093750   0.265625 0
  0.109375   0.250000 0
  0.187500   0.671875 0
  0.421875   0.640625 0
  0.031250   0.062500 0
  0.140625   0.125000 0
  0.562500   0.906250 0
  0.125000   0.437500 0
  0.203125   0.937500 0
  0.125000   0.421875 0
  0.140625   0.406250 0
  0.093750   0.437500 0
  0.109375   0.421875 0
  0.093750   0.421875 0
  0.109375   0.406250 0
  0.328125   0.125000 0
  0.750000   0.906250 0
  0.328125   0.109375 0
  0.750000   0.890625 0
  0.312500   0.125000 0
  0.734375   0.906250 0
  0.281250   0.343750 0
  0.265625   0.359375 0
  0.500000   0.796875 0
  0.078125   0.015625 0
  0.062500   0.015625 0
  0.484375   0.796875 0
  0.484375   0.781250 0
  0.062500   0.000000 0
  0.015625   0.250000 0
  0.062500   0.046875 0
  0.484375   0.828125 0
  0.484375   0.812500 0
  0.062500   0.031250 0
  0.281250   0.671875 0
  0.062500   0.234375 0
  0.328125   0.765625 0
  0.312500   0.750000 0
  0.015625   0.671875 0
  0.781250   0.187500 0
  0.015625   0.265625 0
  0.453125   0.250000 0
  0.453125   0.234375 0
  0.031250   0.265625 0
  0.046875   0.250000 0
  0.093750   0.015625 0
  0.265625   0.656250 0
  0.734375   0.281250 0
  0.156250   0.015625 0
  0.062500   0.265625 0
  0.046875   0.281250 0
  0.031250   0.281250 0
  0.343750   0.781250 0
  0.328125   0.781250 0
  0.265625   0.687500 0
  0.265625   0.703125 0
  0.156250   0.109375 0
  0.578125   0.890625 0
  0.484375   0.984375 0
  0.062500   0.203125 0
  0.328125   0.718750 0
  0.343750   0.734375 0
  0.343750   0.750000 0
  0.453125   0.500000 0
  0.437500   0.500000 0
  0.234375   0.093750 0
  0.171875   0.375000 0
  0.437500   0.531250 0
  0.468750   0.546875 0
  0.453125   0.546875 0
  0.187500   0.015625 0
  0.187500   0.000000 0
  0.609375   0.781250 0
[...]
CELL_DATA 7648
SCALARS scalar_value float 1
LOOKUP_TABLE default
0.0194398
0.0207146
0.0236421
0.0188771
0.0286806
0.0270604
0.0291968
0.0247589
0.0197878
0.0226929
0.0240909
0.0143747
0.0128784
0.0117499
0.00564577
0.00502721
0.00530366
0.00415921
3.01853e-05
2.89597e-05
3.43101e-05
2.50118e-05
5.86388e-06
2.82843e-06
3.09159e-06
4.47354e-06
2.4443e-06
0.0360457
0.0372489
2.5801e-07
3.19591e-07
4.32795e-07
2.44707e-07
7.11395e-07
8.76233e-07
1.15174e-06
7.08436e-07
2.52251e-07
3.30315e-07
4.40887e-07
1.48503e-07
3.27633e-07
0.0121046
0.0144677
0.0137688
0.0682006
0.0724308
0.0804463
2.0015e-06
0.0968138
0.10404
1.88262e-05
2.88141e-06
3.57852e-06
0.00292221
4.03792e-06
0.00333234
0.00229378
9.89153e-07
1.44507e-06
2.11349e-06
1.10083e-05
5.16613e-06
0.00320288
0.00289602
0
0
2.27576e-06
0.00111363
1.15659e-09
0.000816413
0
0.00268755
0.00435326
0.0044105
0
0.0303104
1.10727e-10
0.00370667
0.00747002
0.00937614
0
1.05933e-09
0
0.0788977
8.84377e-07
0.000540075
0.000491528
0.00317974
0
7.92631e-08
0
4.18282e-05
5.521e-05
0
1.73871e-06
0.0110074
3.11842e-06
0.0150809
0.0168076
0.00560909
6.57153e-06
0.00600517
0.00974897
1.4818e-05
0.000398944
0.00381889
0.0738584
0.0605624
5.27051e-08
1.49538e-06
0.000750245
0.000726716
0
6.75288e-05
0
8.43652e-05
5.06895e-05
1.56511e-06
0.0238819
0.0226049
0
0
7.71154e-05
0
0
0
0.0799376
0.0888686
0.0693021
3.99642e-10
0.0318515
0
0.0140432
0.00158164
0.0112854
0.0451107
4.58888e-06
7.28531e-07
0.0586898
0.0048713
0.0616833
0.0656591
3.14109e-07
0.062888
0.0769793
0.0194145
1.91996e-05
0.0918295
0.00290649
0.00267105
5.20424e-06
6.72779e-06
8.59667e-06
0.00142461
0.00131903
0.0339609
4.71198e-07
0.117693
3.73154e-06
0
3.43262e-05
3.97759e-05
0.00222599
0.0827055
0.0866863
3.43684e-07
0.0731258
8.80712e-06
0.0446626
0
0.138378
0.0658948
0.00131809
0.000663069
4.28307e-05
0.0442622
0.057387
0.00105308
0.0648168
0.0690497
0.00134297
0.0804332
0.0342629
0
3.66254e-05
0.131571
0
0
0.0390199
0
0.0395976
0.00892937
4.45715e-10
2.39834e-07
0.0094239
0.0113317
0.00881184
0
0
0
0.0550755
5.07398e-05
0.125819
0.119029
3.93419e-05
5.34678e-06
0.0114005
0.010749
0.0100392
5.31621e-07
8.33826e-07
1.23494e-06
7.48852e-07
0.123139
9.20297e-05
0
0.0464145
0
0.00501429
0.010317
0.116292
0.123862
1.98208e-07
0.108072
4.05961e-08
0.00186581
0.003767
0.0867868
0.0768085
0.0776549
0.077504
0.0559197
0.000606728
0.0994972
0.0958237
0.097608
0.0919032
0.0392661
0
0.0343242
0.00112704
0.000694765
0.00270765
0.00281243
0.110887
0.0019559
0.10087
0.108503
2.74611e-08
0.0920754
0.00262314
5.08452e-06
6.68232e-06
6.2876e-06
0.0311451
0.00029584
0.00452046
0.00452776
2.32182e-05
2.79723e-05
2.70188e-05
0.0355871
6.67842e-07
1.87175e-07
0.107818
3.62864e-07
0.0976957
2.48444e-07
0.0911192
0.16507
1.99618e-05
0
0.0214562
0.00165576
1.00011e-07
0.0601307
0.00682604
0.000451909
0.000555011
1.1596e-07
0.0301159
0.00524247
0.00197726
0.000977663
0.0168024
0.00189347
1.21467e-07
2.7348e-08
0.0265751
4.74784e-08
0.00921393
0.00171719
3.41363e-09
0.000484846
0.000488132
4.54531e-09
0.000596713
0
0.00326869
2.84718e-05
0.00142287
0.00567026
0.00342785
1.64696e-05
1.34638e-05
1.19078e-05
6.83097e-05
0.0088006
0.000217538
0.00016811
0.0319475
0.0128135
1.06185e-09
0.00440392
0.00494591
8.23032e-05
0.00429711
6.6345e-05
0.00345883
5.03376e-05
1.13755e-05
0.0238957
0.0239941
0.0347403
0.000237917
5.35947e-05
0.0221792
0.0281227
0.000114898
0.0189712
5.02693e-06
0.0777382
0.016604
0.00832293
0.015613
0.0074978
0.0384108
0.0337291
1.60257e-05
0.0143161
0.0486231
0.041651
0
0.0173874
0.00908605
0.0118798
0.00341633
1.72734e-08
0
0
0
3.35338e-05
0.023102
1.53619e-08
0.0233972
5.70014e-08
0.0205852
0.0185532
0.0168362
0.000342313
0.000288138
0.000316788
0.0025942
0.0259575
0.00519457
0.0209221
5.98765e-10
1.12778e-08
7.7296e-09
0.0309925
0.00210608
4.68486e-08
0.0846544
2.73753e-08
0.10175
0.00168932
6.45033e-09
0.00105366
1.3939e-05
0.000364034
0.0259632
0.000303079
0.00133602
0.094385
0.00259963
0.0946568
0.00136706
2.17138e-07
0.0245597
0.0184407
0.00398124
0.0414688
0.0303522
0.05014
1.53736e-06
2.39469e-06
0.0375474
0.003392
0.00495214
3.95883e-07
0.0664477
0.0217829
0.000845283
0.0242462
0.0034096
1.07452e-07
0.061686
0.0616307
1.11694e-06
0.0028234
0.00626666
0.00428454
0.00266186
0.00141469
0.00169583
0
0.00161971
3.02485e-08
0.00148138
0.0536112
0.00229934
0.00656454
9.24039e-06
2.70062e-05
2.39091e-05
0.0176724
2.44919e-05
0.00885078
1.40013e-06
0.0210375
3.64397e-05
1.06702e-06
9.90101e-09
1.17169e-06
6.91091e-07
2.55412e-07
0
0.0627306
0.0262715
0.000102175
0.0222322
1.48606e-05
1.95854e-05
0.0201239
2.63638e-05
0.0192687
0.0157903
0.0171975
0.0212115
0.0805336
4.33739e-05
1.02536e-06
3.57512e-05
0.0182383
1.51885e-06
1.95239e-06
1.64955e-06
0.00447627
0.00525595
0.0614292
3.24567e-05
0.0152221
0.0107928
0
7.81875e-07
6.36845e-07
5.45979e-09
0
2.26685e-08
0.068716
3.79431e-09
0.000562113
0
5.51238e-09
0.000534563
6.83933e-06
0.00769959
0
0.0303877
0
0.00032371
3.29849e-10
1.67542e-10
0.0513581
0.0599181
0.0684766
0.0241411
5.45948e-05
8.17923e-05
5.37665e-10
0.000109777
7.52242e-10
0.000443638
0.00380271
1.45982e-10
2.85523e-05
0.0195427
0.00558098
7.89652e-07
5.91625e-07
0.0123248
0.0027645
4.22834e-07
3.11577e-07
0.0752789
1.88986e-06
1.48091e-06
1.36827e-06
1.13623e-06
0.0310518
0.00771325
1.90895e-06
6.89571e-09
0.00902505
3.56929e-07
0.0925472
1.47851e-06
3.34767e-07
0.0921773
1.18565e-06
0.0719716
5.31314e-07
8.92781e-07
0.00359864
0.0013906
0.0634586
0.0571285
0.00138093
0.000999001
0.048754
2.72301e-07
0.00708301
3.77474e-07
0.000829806
0.111678
0.00106456
0.108081
0.000655186
0.00141256
0.00085477
0.00138101
4.29395e-07
4.37794e-07
0.0488151
0.00151668
0.00195464
0.00110884
0.00306532
0.00129523
0.000997014
0.0740818
0.00166233
0.00146692
0.00670143
0.00655798
0.00878181
0.123993
1.55783e-06
7.081e-07
0.113458
2.48116e-07
8.44064e-08
4.12389e-07
0.00947454
0.000870412
1.56046e-05
0.0108569
0.0101492
0.0134
1.16952e-05
0.0037137
0.00112554
0.0528683
3.79226e-07
0.00116549
0.1496
1.92493e-07
0.00225462
3.44218e-05
0.00464597
0.00456808
9.89902e-08
1.57993e-07
0.00359788
6.26192e-08
0.0108247
0.0880184
1.27797e-07
0.146372
0.148993
6.8076e-10
4.55689e-07
8.61183e-07
0.0992381
2.00673e-06
0.00249028
0.0787847
5.15408e-07
0.0978477
7.39633e-07
4.85639e-07
1.78994e-07
3.19419e-07
0.0815465
0.00140868
3.89586e-07
0.00513346
0.00189712
0.0357102
0.0331886
0.0313694
0.026568
0.0242878
0.0266978
2.56214e-05
0.0193001
2.13558e-05
9.32482e-07
1.19415e-07
0.0273576
1.84287e-07
2.23069e-07
5.52772e-07
0.0016865
6.99865e-07
4.56667e-07
9.32124e-08
1.35508e-07
3.17798e-07
4.96377e-07
0.00533016
7.04418e-08
8.36258e-08
0.0794584
0.000379959
0.0749544
0.0551494
0.00303528
0.00270182
0.0157334
0.0136576
0.0055771
0.142193
0.0201428
0.0973523
0.0128386
1.46954e-08
2.40143e-08
0
0.000208332
0.0677425
0.075704
4.91106e-08
0
0.000930673
6.82308e-08
0.00073025
0.00219214
0.000470384
0.0130213
0.0421975
0.000370816
6.18699e-07
4.52269e-06
0.0842179
6.82776e-07
5.43608e-06
0
0
0
4.07359e-06
0.0385754
1.20518e-06
0.0328776
2.26295e-05
0.010826
0.011365
0.0138645
0.0679406
0.07179
0.067113
0.0259248
0
0.0044975
0.128178
0.137885
0.105269
1.01268e-07
0.000663241
0.112463
0.122636
3.024e-07
0.00544258
0.112461
0.128787
0.00813213
1.63156e-05
0.0343666
0.033587
0.0294068
0.00310922
0.0406236
0.000379274
0.0317793
0.00017798
0.0221686
0.0255897
0.0944337
0.0998768
0.124759
0.121143
0.121868
0.0437577
0.0340577
0.102463
0.106227
4.14021e-05
0.000239889
0.109731
0.103697
0.0280929
0.0289751
0.0251092
0.111066
0.116249
0.0938555
0.115021
0.0180026
0.0209045
0.0238679
0.115182
0.122015
0.122612
8.01684e-06
4.90113e-06
0.00605994
0.122514
0.124312
0.125125
0.00380148
0.132391
0.141437
0.132436
2.50265e-06
0.0105555
0.000489631
0.0127564
0.0254723
7.54538e-06
0.0939594
0.102382
0.105465
1.80357e-07
4.3294e-07
2.44723e-07
2.82818e-07
0.00209104
0.00163572
1.11649e-08
0.0058128
8.16864e-05
1.63529e-08
3.20499e-08
0.000324494
7.43311e-08
0.00121117
0.156545
0.00094788
0.000776774
0.00080571
0.000663867
0.00136367
0.00120683
0.00105317
0.000733574
2.93656e-07
0.000963866
0.000845555
0.0243828
0.0285035
0.000279267
0.000483983
0
0.00259499
2.04702e-10
0.0186109
0.0222468
0.012003
0.000483111
0.000420424
1.38743e-07
9.66901e-05
1.383e-05
0.00324248
0.000192002
8.73855e-06
0.00470164
1.32577e-08
0.00662647
2.59823e-09
5.98477e-08
0.00503069
4.33762e-05
0.0191253
3.35594e-08
0.0878289
0.0255515
0.00012944
5.66173e-05
0.0205926
6.53467e-09
0.000565452
0.00457153
0.000496287
0.000541694
0.0181712
0.000719962
0.0848575
0.0821542
1.19468e-07
0.00288772
0.0026955
1.6425e-07
8.70635e-08
0.0315768
0.0215294
0.0589484
1.27738e-09
0.0313187
2.4941e-09
0.000186064
0.0776215
0.0782985
0.0685981
0.000646403
0.000589983
0.00786183
0.00819983
0.00711547
3.35235e-06
0.0462828
0.0527095
0
4.27765e-05
0.0933188
0.0057676
1.68738e-06
1.18004e-05
0.155232
0.000903719
0.00340152
0.118441
0.125441
0.00604039
0.119761
1.68666e-07
0.0328703
0.00114118
0.00593355
0.115663
3.13742e-06
0.122445
0.00119199
5.74175e-07
1.76499e-10
0.010294
6.89076e-06
0.0970369
1.0514e-05
2.7465e-05
0.0143567
2.3714e-05
0
0
0
3.94854e-05
1.2345e-05
0
0.0495587
0
0.0300351
9.56106e-06
1.01746e-05
0
5.16778e-05
0.0198471
0.026835
0.00010848
0
0
0.0215636
0.0246867
0.0203194
0.0666
0.0150349
0
0
0.0153193
0.0182922
0.000513717
0.0123487
0.00390038
1.79665e-08
0
8.88605e-06
0.00426028
9.45871e-06
5.83791e-06
0.0227959
6.97473e-05
3.12667e-05
0.0175321
0.0726395
0.0786285
0
5.17707e-06
0.155732
6.53714e-06
6.5194e-06
1.29629e-05
0.0337339
4.63311e-05
7.8059e-06
3.43175e-06
8.12131e-05
0.0184359
1.14415e-05
0.0196395
0.0140353
0.0460428
2.33926e-09
0.0190449
0.0226301
0.0261691
0.0445188
0.000363525
0.0347112
0.000193698
9.60703e-05
0.0261041
0.0132468
6.94659e-06
0.0152955
3.44128e-05
0.0159589
0.0577004
0
0.000842859
9.02982e-09
0.000682065
4.58481e-06
8.74253e-06
0.00141686
0.000120053
0.00370692
0.0428513
2.72895e-09
1.2387e-09
1.27441e-06
0.0544138
0.0583355
0
0.00253262
4.32124e-09
0
7.66444e-10
0.0157343
2.53684e-05
0.000927085
0
0.0737845
8.35699e-06
0
0.0217142
0.0119331
0.0755973
0.00813942
0.0802321
0.0669841
0.0781899
0.0786537
0.00155807
5.47224e-05
0.163979
0.0234698
2.46339e-05
0.161948
0.167354
1.76508e-06
0.00260892
6.37228e-05
0
0.0220402
0.0494662
0.000822221
0.000467329
0.0413574
0.0942229
0.00243473
0
0.0384602
4.43278e-05
0.167369
0.0838469
0.0734174
0.0802716
0.0877192
0.00203283
0.00203929
0.0753793
0.00210145
0.00195942
0.0679026
0.000947499
0.00188097
0.00219086
2.74367e-05
0.0474668
0.000882501
0.0191119
4.22467e-05
0.124158
0.00684294
0.000211694
9.65863e-05
0.0230115
0.0139892
1.58066e-09
0.0168243
3.87681e-08
7.86776e-09
3.23952e-08
0.00196907
1.23513e-08
0.0314599
0.00047031
0.0119424
0.0251895
0.000122979
0.0293681
0.0246894
8.08728e-05
1.75352e-07
1.3957e-08
5.43219e-07
0.00819322
0
0
0
1.37465e-05
0.0317382
0.000610667
0.0426962
0.0579609
0.0658763
8.78496e-05
1.85274e-05
0.158243
0.00118862
2.74568e-05
0.0222151
0.044747
6.39686e-05
8.77944e-06
3.35799e-08
1.09739e-05
0.000110237
0.0224968
0.147584
0.0212997
0.15574
7.25694e-06
4.25346e-06
4.79943e-06
8.33351e-06
0.0187702
0.0202378
0.00299072
0
0.0251529
0.0276372
0
0.00197028
0.111036
2.12353e-06
0.0291961
0.00100623
0.00233738
0
2.92501e-06
0.00156541
0.0198158
0
0.0311236
9.7232e-08
0.00833083
0.000729856
0.00252655
0.0305145
0
1.59138e-07
2.72736e-06
0.00392716
0.0383133
0.000546902
1.10485e-07
0.0282614
0.0821628
9.02083e-07
0.000120261
0.0293418
0.0346153
0.000260458
3.03838e-08
0.00534332
0.0228367
0
0.00169936
0
4.95079e-06
3.84419e-06
0
2.53265e-05
0
0.00954302
0.0997095
0.0270031
5.83445e-09
0.0411624
5.32467e-07
0.00394403
0.0107555
2.75415e-05
4.17332e-06
0.0905874
0.000898668
1.61422e-07
0.0467252
3.58052e-08
0.0145921
0.00215911
0.00733053
0.137253
1.0551e-05
0.0263097
1.21338e-05
0.0212819
0.00379174
7.4417e-07
1.37717e-07
0.0132544
1.84551e-08
1.19061e-06
4.00364e-08
0.0119678
3.0184e-09
0.0862393
1.36453e-05
0.00971934
0.0153265
2.98787e-05
5.37801e-06
1.48681e-07
3.70343e-06
0.00302803
5.55194e-05
0.113748
0.0878817
0.000337321
0.00952466
2.29845e-05
0.0155183
0.0249019
0.0844177
0.00587161
0.014433
1.90266e-05
0.0145835
0.0294651
0.0041929
0.078606
0.00547689
0
0.0387492
0.08534
1.94269e-10
0.00762299
5.68814e-07
0.0413673
0.00370182
3.85114e-10
1.87157e-05
0.0777221
0.0802028
8.27332e-06
3.32717e-05
0.00232703
0.00720688
0
0.0692423
0.00295959
0.010703
1.03621e-05
6.27058e-05
6.1328e-10
0.000283776
0.00335
0
0.00410663
0
0.0503246
0.0739296
2.94504e-07
0.00818313
0
0.0728684
0.00270302
0.0030488
0.0598318
0.002463
0
1.48989e-05
0.000833111
0.000978784
9.30598e-09
3.10846e-10
1.54673e-07
1.24886e-06
1.32336e-05
0.122152
2.37679e-10
4.957e-07
0.11874
0.10181
2.64793e-07
0.130921
0.0114848
0.142368
0.118721
0.0116507
0.043791
0.043294
0.0463417
0.00659175
0.130902
8.79361e-07
0.0505818
0.000119375
5.16324e-07
0.0995011
0.000325747
0.000487454
0.0191376
6.35257e-06
0.0151988
0.000206225
0.000331435
3.37095e-08
2.4923e-06
0.122729
0.0253628
3.60222e-05
0.0205866
0.00240306
0.00759907
0
0.0274044
0.00408574
0
0.025771
0.00243502
0.11497
0.0389412
0.00295548
0.00639987
1.04082e-06
0.107625
1.22215e-06
5.10734e-07
0.00109805
0.00211785
2.4238e-10
0.0535095
0.00043756
0.00812461
0.00356774
0
0.00167531
0.0286786
1.48391e-10
0
0.000941758
9.41361e-10
3.65229e-07
5.13343e-08
0.0108563
0.00250975
0.0247024
1.1178e-10
0
0.0165681
0
0
0.00210958
0
0.00948187
0
0
1.21224e-05
0.0101756
0.0156039
2.66862e-05
2.13278e-09
0
0.0662607
0.0670942
0.000736344
0.0622572
0.0774481
0.00101658
7.79762e-10
1.23184e-07
0.00381361
0.00153216
1.86575e-09
2.37033e-09
1.17687e-08
0.00537965
0.00053783
6.77796e-05
0.000254887
6.24128e-10
2.25823e-07
1.17544e-09
2.58163e-08
4.53592e-10
0.00687661
0.000115238
0
0.000276508
0.0330463
0.000607981
0.000718768
0.028308
0.0958078
0.000498042
0
0.00133001
2.80365e-10
0.0941364
0
0.00012322
0.0274612
0.000283552
6.76162e-07
0.0692717
4.03807e-06
0
0.0502924
0.00067877
0.0158095
0.0106205
0.00713574
0.0521127
0.000848386
2.08101e-05
5.17151e-05
0.08787
0.0858702
0.005902
5.41683e-06
0.0185592
4.57692e-05
0
0
1.81748e-06
0.00175045
0.0965383
0.102494
0.00298793
0.00945556
2.32288e-05
0
0.0898577
0.0355151
0.0550863
0
0.0833233
0.00116354
0.0612162
1.061e-06
0.0864214
0.00376637
0.152917
0.00325507
0
0.0305149
3.78216e-05
0.153493
0.0661413
0.00333777
0.0044375
6.48192e-07
5.22989e-07
1.80183e-10
8.01789e-05
0.0202195
0.000507836
0.00030504
1.85448e-07
3.81155e-10
0.0018255
5.7883e-06
0.00949056
0.166139
0.162487
0.165502
0.160583
0.00026073
2.01344e-10
0.0666597
0.16317
0
1.65055e-05
0.0121926
0.017839
3.57946e-05
4.5347e-08
0.157198
0.0023493
0.0848763
9.7379e-07
0.00665994
1.83255e-07
1.87464e-07
0.000226891
0.12245
2.77421e-09
0.160822
0.0722523
0.00100605
0.0295119
0.0269694
0.0444964
0
0.112648
0.158752
0.154922
0.000909882
0.166451
0.081414
0.00225766
0.156918
0.0140115
5.88497e-08
0.0614927
8.42518e-07
0.00098825
0.157493
0.086587
3.09864e-05
0.14858
0.0545714
0.000816435
0.0880356
0.0924706
0.00110951
0.148498
0.0156087
0.0053792
0.0211426
0.0911608
0.0471993
1.24655e-10
0.0925615
8.8765e-07
0.000221153
1.05771e-07
0.00341776
0.000149497
0.0100738
2.36068e-06
0.100101
1.78709e-10
0.0231378
0.15168
0.0140246
0.00919876
0.142742
0.00997917
0.00167497
0.0144313
2.06423e-09
0.153259
0.0830729
0.00196302
0.00131688
0.0267063
0.0362562
2.0804e-08
0.0661262
0.0219162
3.64655e-05
0.00178063
0.00305324
0
0.0032
3.19283e-05
0.000699977
0.0212967
0.00107776
0.00242995
4.48418e-05
8.21273e-05
0.0239693
0.0249498
0.0497862
8.92332e-07
0.107104
0.0123237
0.09002
0.0452708
0.00624604
0.127727
7.38523e-05
2.78998e-05
0.0627989
0.000424898
0.0144919
3.72939e-05
0.152538
8.94555e-08
0.00198337
0.150174
0.0997845
0
0.00448126
0.0478709
0.00453798
0.00962479
2.81226e-10
0.00277397
0.00026525
0.0862927
4.39345e-07
0.076013
0.00110476
2.67195e-06
0.0031026
0.00563474
6.09798e-06
0.0471878
4.12198e-06
0.00117046
0.0885657
3.49343e-07
0.000881524
0.0476045
0.00427119
3.31648e-07
0.00121667
0.0685853
2.44428e-06
0.0224101
4.85678e-06
6.80596e-06
0.0188129
0.00787095
0.00143082
0.00928538
0
0
7.3259e-05
0.00348593
0.0124054
0
0.00844058
0.0116552
7.62358e-05
4.04014e-08
1.0634e-05
0.000232311
4.16871e-05
0.0582209
1.37047e-05
0.0505244
3.32903e-06
3.95286e-06
0
1.17335e-05
0
0
0.0201436
0.159977
5.84712e-05
0
0.0587125
0.0001465
2.52793e-05
0.000178591
4.22634e-09
0.0223646
0.084091
0.000610786
0.052777
0.0258556
7.80121e-05
0.000114346
1.21438e-08
0.0061562
3.09071e-06
1.4009e-06
0.00264274
0.0197283
0.000111636
0.00778274
1.82643e-05
0.00986791
0.0202438
0.110711
5.53309e-09
0.00622842
0.0581295
0.0174355
0.069515
0.000842925
0.0490435
0.0993779
0.0706823
0.0219666
0.0690166
6.49069e-05
0.000167229
0.00249852
0.00321031
0.0613337
5.72833e-07
0.00627279
0.104742
0.010256
0.0845125
6.31532e-07
2.1173e-07
0.00256746
0.108134
0.00466607
0.00207404
0.0916323
0.0121655
0.0477896
0.120741
0.00163604
0.0779113
0.0860148
0.131079
0.00786914
2.56404e-10
0.0152614
0.000889291
0.0693439
0
0.0476229
1.80472e-05
0.11942
8.28815e-05
0.0135137
2.46524e-05
3.46317e-09
0.00291332
1.38601e-05
0.0168973
0.142483
1.10581e-05
0.000904516
3.40927e-05
0.165167
0.000193138
2.523e-07
2.88391e-06
0.000715776
0.161461
0.165011
0.0269166
0.00300031
6.39746e-05
0.155557
0.0169189
0.0482225
0.110388
0.0926588
3.70143e-07
0.00274559
0.0853641
0.00324139
0.0132568
0.0833217
0.152831
0.0618113
5.51097e-09
4.26637e-07
0.0732647
0.00120724
0.000814012
0.0602997
0.0161961
1.8783e-05
0.0170099
0.0536064
0.0528482
0.0977471
0.107185
8.43038e-07
0.0541373
5.39446e-05
0.100093
8.89362e-07
0.0472351
1.48922e-07
0.00111298
8.09173e-08
0.0273941
0.00325161
0.000623159
8.93795e-05
0.0257334
0.0408283
0.00085573
0.0181846
7.00884e-08
0.0157566
0.00063994
1.98374e-09
3.2824e-08
0.0187137
0.0120579
1.33786e-08
0.0932509
2.60362e-06
0
0
0.0902293
2.41632e-07
0
0.00431246
0.00750524
8.15411e-06
0.0186629
4.17342e-05
0
0.000345602
2.84036e-05
4.31752e-05
0.00283105
8.36415e-06
0.101353
6.82736e-06
0
0
0.0381443
0.000559357
8.13802e-06
2.10664e-06
0.0979562
0
0.00211149
0
0.116281
0.00197991
3.02518e-06
0.10931
0.0121417
0
0
0.00527334
0.0497667
2.15003e-06
0.0192055
0.000143643
6.03509e-09
0.0260451
0.103963
0.0264974
0.114143
0.0279028
0.0103737
0.000580769
0.111733
0.0234309
2.10503e-07
2.21112e-06
3.32287e-05
0.143607
9.69419e-05
2.91734e-05
0.154251
1.89937e-06
0.0224157
0.115281
0.136
0.00136904
7.2159e-09
5.97486e-08
0.0242048
0.00221863
0
0.000670725
0.00080022
0.0644683
0.0145796
0.0062281
0.0193276
0.0737373
0.000681672
0.00467078
0
0
0.0181378
0
0.0125905
0.00236814
5.30386e-06
8.46924e-08
0.00525347
0.148158
0.0654767
1.41283e-06
2.24583e-06
1.83984e-06
2.2354e-06
0.00577917
1.15981e-06
0.00531929
0.00126636
0.111062
1.45149e-07
0.0634009
1.43623e-06
0.00749862
1.86238e-06
2.4783e-07
1.96226e-06
0.0559869
0.160307
2.28884e-06
0.00724308
1.14613e-05
0.00590171
0.0718525
9.46542e-07
1.49731e-05
0.0218867
0.0357651
0.000639537
0.0148222
1.95355e-06
0.116892
0.00208356
0.0146645
1.60383e-05
7.31147e-06
0.00911403
0.149947
3.3191e-05
0
0
5.54433e-06
9.58594e-05
1.61409e-05
0.0174057
0.0670566
0.0612367
3.38034e-08
0.00282442
0.00180281
0.00187103
0.157821
0
0.0212585
0
0.0037784
0.0866745
8.0219e-06
0
2.8228e-06
2.07906e-07
0.0473358
0.0461727
0.0100782
0
0
0.0184977
3.68609e-05
6.30046e-05
0.0938298
0.00309802
0.0340391
6.06754e-09
1.03266e-05
0.00339629
0.000524927
0.0623635
0.0150391
0.0580594
8.18957e-09
4.69526e-08
6.34556e-08
1.80157e-08
2.96762e-06
2.47742e-08
0.0011342
0.00117707
0.00613204
0.0370736
0.0375096
0.0113532
4.33283e-05
1.56159e-09
0.000158821
0.0014535
6.08825e-05
1.4094e-05
0.00103263
9.0568e-07
0.0103694
0.0141752
0.00128401
0.00101606
0.0125635
0.0792665
0
0
5.68101e-07
0.0571803
0.0683343
3.5233e-06
2.85733e-07
0.0626559
2.39003e-07
0.064636
0.0616077
0.0488105
0.0533412
1.51867e-09
1.45047e-06
0.102947
0.00759424
0.00113084
0.0389612
3.59632e-08
0
0.0035378
0.000306157
0.000415433
0.00031425
0.0227728
8.10211e-09
0.0211516