# vtk DataFile Version 2.0
Unstructured Grid by M++
ASCII
DATASET UNSTRUCTURED_GRID
POINTS 4072 float
  0.609375   0.843750 0
  0.562500   0.843750 0
  0.531250   0.843750 0
  0.875000   0.828125 0
  0.984375   0.828125 0
  0.953125   0.828125 0
  0.937500   0.828125 0
  0.843750   0.828125 0
  0.812500   0.828125 0
  0.781250   0.828125 0
  0.765625   0.828125 0
  0.734375   0.828125 0
  0.703125   0.828125 0
  0.671875   0.828125 0
  0.640625   0.828125 0
  0.609375   0.828125 0
  0.593750   0.828125 0
  0.562500   0.828125 0
  0.546875   0.828125 0
  0.531250   0.828125 0
  0.515625   0.828125 0
  0.968750   0.812500 0
  0.937500   0.812500 0
  0.921875   0.812500 0
  0.890625   0.812500 0
  0.859375   0.812500 0
  0.828125   0.812500 0
  0.796875   0.812500 0
  0.765625   0.812500 0
  0.750000   0.812500 0
  0.718750   0.812500 0
  0.687500   0.812500 0
  0.656250   0.812500 0
  0.625000   0.812500 0
  0.593750   0.812500 0
  0.578125   0.812500 0
  0.546875   0.812500 0
  0.531250   0.812500 0
  0.515625   0.812500 0
  0.984375   0.796875 0
  0.562500   0.015625 0
  0.953125   0.796875 0
  0.921875   0.796875 0
  0.906250   0.796875 0
  0.875000   0.796875 0
  0.843750   0.796875 0
  0.812500   0.796875 0
  0.781250   0.796875 0
  0.750000   0.796875 0
  0.734375   0.796875 0
  0.703125   0.796875 0
  0.671875   0.796875 0
  0.640625   0.796875 0
  0.609375   0.796875 0
  0.578125   0.796875 0
  0.562500   0.796875 0
  0.531250   0.796875 0
  0.515625   0.796875 0
  0.968750   0.781250 0
  0.546875   0.000000 0
  0.937500   0.781250 0
  0.906250   0.781250 0
  0.890625   0.781250 0
  0.859375   0.781250 0
  0.828125   0.781250 0
  0.796875   0.781250 0
  0.765625   0.781250 0
  0.734375   0.781250 0
  0.718750   0.781250 0
  0.687500   0.781250 0
  0.656250   0.781250 0
  0.625000   0.781250 0
  0.593750   0.781250 0
  0.562500   0.781250 0
  0.546875   0.781250 0
  0.515625   0.781250 0
  0.984375   0.765625 0
  0.953125   0.765625 0
  0.921875   0.765625 0
  0.890625   0.765625 0
  0.875000   0.765625 0
  0.843750   0.765625 0
  0.812500   0.765625 0
  0.781250   0.765625 0
  0.750000   0.765625 0
  0.718750   0.765625 0
  0.703125   0.765625 0
  0.671875   0.765625 0
  0.640625   0.765625 0
  0.609375   0.765625 0
  0.578125   0.765625 0
  0.593750   0.750000 0
  0.562500   0.765625 0
  0.546875   0.765625 0
  0.531250   0.765625 0
  0.562500   0.750000 0
  0.968750   0.750000 0
  0.937500   0.750000 0
  0.906250   0.750000 0
  0.875000   0.750000 0
  0.859375   0.750000 0
  0.828125   0.750000 0
  0.796875   0.750000 0
  0.765625   0.750000 0
  0.734375   0.750000 0
  0.703125   0.750000 0
  0.687500   0.750000 0
  0.671875   0.750000 0
  0.656250   0.750000 0
  0.625000   0.750000 0
  0.546875   0.750000 0
  0.531250   0.750000 0
  0.515625   0.750000 0
  0.562500   0.734375 0
  0.984375   0.734375 0
  0.953125   0.734375 0
  0.921875   0.734375 0
  0.890625   0.734375 0
  0.859375   0.734375 0
  0.843750   0.734375 0
  0.812500   0.734375 0
  0.781250   0.734375 0
  0.750000   0.734375 0
  0.718750   0.734375 0
  0.687500   0.734375 0
  0.671875   0.734375 0
  0.656250   0.734375 0
  0.640625   0.734375 0
  0.546875   0.734375 0
  0.531250   0.734375 0
  0.515625   0.734375 0
  0.562500   0.718750 0
  0.968750   0.718750 0
  0.937500   0.718750 0
  0.906250   0.718750 0
  0.875000   0.718750 0
  0.843750   0.718750 0
  0.796875   0.718750 0
  0.765625   0.718750 0
  0.734375   0.718750 0
  0.703125   0.718750 0
  0.687500   0.718750 0
  0.671875   0.718750 0
  0.656250   0.718750 0
  0.625000   0.718750 0
  0.546875   0.718750 0
  0.531250   0.718750 0
  0.515625   0.718750 0
  0.562500   0.703125 0
  0.953125   0.703125 0
  0.921875   0.703125 0
  0.890625   0.703125 0
  0.859375   0.703125 0
  0.828125   0.703125 0
  0.781250   0.703125 0
  0.750000   0.703125 0
  0.718750   0.703125 0
  0.687500   0.703125 0
  0.656250   0.703125 0
  0.546875   0.703125 0
  0.531250   0.703125 0
  0.515625   0.703125 0
  0.984375   0.687500 0
  0.937500   0.687500 0
  0.921875   0.687500 0
  0.906250   0.687500 0
  0.875000   0.687500 0
  0.843750   0.687500 0
  0.812500   0.687500 0
  0.765625   0.687500 0
  0.734375   0.687500 0
  0.703125   0.687500 0
  0.671875   0.687500 0
  0.640625   0.687500 0
  0.593750   0.687500 0
  0.562500   0.687500 0
  0.546875   0.687500 0
  0.531250   0.687500 0
  0.515625   0.687500 0
  0.968750   0.671875 0
  0.937500   0.671875 0
  0.921875   0.671875 0
  0.906250   0.671875 0
  0.890625   0.671875 0
  0.859375   0.671875 0
  0.828125   0.671875 0
  0.796875   0.671875 0
  0.765625   0.671875 0
  0.750000   0.671875 0
  0.718750   0.671875 0
  0.687500   0.671875 0
  0.656250   0.671875 0
  0.625000   0.671875 0
  0.593750   0.671875 0
  0.578125   0.671875 0
  0.546875   0.671875 0
  0.531250   0.671875 0
  0.515625   0.671875 0
  0.984375   0.656250 0
  0.953125   0.656250 0
  0.937500   0.656250 0
  0.921875   0.656250 0
  0.906250   0.656250 0
  0.875000   0.656250 0
  0.843750   0.656250 0
  0.812500   0.656250 0
  0.781250   0.656250 0
  0.750000   0.656250 0
  0.734375   0.656250 0
  0.703125   0.656250 0
  0.671875   0.656250 0
  0.640625   0.656250 0
  0.609375   0.656250 0
  0.578125   0.656250 0
  0.562500   0.656250 0
  0.531250   0.656250 0
  0.515625   0.656250 0
  0.968750   0.640625 0
  0.937500   0.640625 0
  0.906250   0.640625 0
  0.890625   0.640625 0
  0.859375   0.640625 0
  0.828125   0.640625 0
  0.796875   0.640625 0
  0.765625   0.640625 0
  0.734375   0.640625 0
  0.718750   0.640625 0
  0.687500   0.640625 0
  0.656250   0.640625 0
  0.625000   0.640625 0
  0.593750   0.640625 0
  0.562500   0.640625 0
  0.546875   0.640625 0
  0.515625   0.640625 0
  0.984375   0.625000 0
  0.953125   0.625000 0
  0.921875   0.625000 0
  0.890625   0.625000 0
  0.875000   0.625000 0
  0.843750   0.625000 0
  0.812500   0.625000 0
  0.781250   0.625000 0
  0.750000   0.625000 0
  0.734375   0.625000 0
  0.718750   0.625000 0
  0.703125   0.625000 0
  0.671875   0.625000 0
  0.640625   0.625000 0
  0.609375   0.625000 0
  0.578125   0.625000 0
  0.562500   0.625000 0
  0.546875   0.625000 0
  0.531250   0.625000 0
  0.968750   0.609375 0
  0.937500   0.609375 0
  0.906250   0.609375 0
  0.875000   0.609375 0
  0.859375   0.609375 0
  0.828125   0.609375 0
  0.796875   0.609375 0
  0.765625   0.609375 0
  0.750000   0.609375 0
  0.734375   0.609375 0
  0.718750   0.609375 0
  0.703125   0.609375 0
  0.687500   0.609375 0
  0.656250   0.609375 0
  0.625000   0.609375 0
  0.593750   0.609375 0
  0.562500   0.609375 0
  0.546875   0.609375 0
  0.531250   0.609375 0
  0.515625   0.609375 0
  0.984375   0.593750 0
  0.953125   0.593750 0
  0.921875   0.593750 0
  0.890625   0.593750 0
  0.859375   0.593750 0
  0.843750   0.593750 0
  0.812500   0.593750 0
  0.781250   0.593750 0
  0.750000   0.593750 0
  0.734375   0.593750 0
  0.718750   0.593750 0
  0.687500   0.593750 0
  0.671875   0.593750 0
  0.640625   0.593750 0
  0.609375   0.593750 0
  0.578125   0.593750 0
  0.562500   0.593750 0
  0.546875   0.593750 0
  0.531250   0.593750 0
  0.515625   0.593750 0
  0.968750   0.578125 0
  0.937500   0.578125 0
  0.906250   0.578125 0
  0.875000   0.578125 0
  0.890625   0.562500 0
  0.843750   0.578125 0
  0.828125   0.578125 0
  0.796875   0.578125 0
  0.765625   0.578125 0
  0.734375   0.578125 0
  0.703125   0.578125 0
  0.671875   0.578125 0
  0.656250   0.578125 0
  0.656250   0.562500 0
  0.625000   0.578125 0
  0.640625   0.562500 0
  0.593750   0.578125 0
  0.562500   0.578125 0
  0.546875   0.578125 0
  0.531250   0.578125 0
  0.515625   0.578125 0
  0.859375   0.562500 0
  0.828125   0.562500 0
  0.781250   0.562500 0
  0.750000   0.562500 0
  0.718750   0.562500 0
  0.687500   0.562500 0
  0.609375   0.562500 0
  0.578125   0.562500 0
  0.562500   0.562500 0
  0.546875   0.562500 0
  0.531250   0.562500 0
  0.515625   0.562500 0
  1.000000   0.812500 0
  0.578125   0.031250 0
  0.875000   0.546875 0
  0.625000   0.546875 0
  0.218750   0.000000 0
  0.640625   0.781250 0
  0.828125   0.093750 0
  0.031250   0.531250 0
  0.296875   0.328125 0
  0.296875   0.312500 0
  0.281250   0.312500 0
  0.765625   0.312500 0
  0.031250   0.859375 0
  0.093750   0.265625 0
  0.109375   0.250000 0
  0.187500   0.671875 0
  0.421875   0.640625 0
  0.031250   0.062500 0
  0.140625   0.125000 0
  0.562500   0.906250 0
  0.125000   0.437500 0
  0.203125   0.937500 0
  0.125000   0.421875 0
  0.140625   0.406250 0
  0.093750   0.437500 0
  0.109375   0.421875 0
  0.093750   0.421875 0
  0.109375   0.406250 0
  0.328125   0.125000 0
  0.750000   0.906250 0
  0.328125   0.109375 0
  0.750000   0.890625 0
  0.312500   0.125000 0
  0.734375   0.906250 0
  0.281250   0.343750 0
  0.265625   0.359375 0
  0.500000   0.796875 0
  0.078125   0.015625 0
  0.062500   0.015625 0
  0.484375   0.796875 0
  0.484375   0.781250 0
  0.062500   0.000000 0
  0.015625   0.250000 0
  0.062500   0.046875 0
  0.484375   0.828125 0
  0.484375   0.812500 0
  0.062500   0.031250 0
  0.281250   0.671875 0
  0.062500   0.234375 0
  0.328125   0.765625 0
  0.312500   0.750000 0
  0.015625   0.671875 0
  0.781250   0.187500 0
  0.015625   0.265625 0
  0.453125   0.250000 0
  0.453125   0.234375 0
  0.031250   0.265625 0
  0.046875   0.250000 0
  0.093750   0.015625 0
  0.265625   0.656250 0
  0.734375   0.281250 0
  0.156250   0.015625 0
  0.062500   0.265625 0
  0.046875   0.281250 0
  0.031250   0.281250 0
  0.343750   0.781250 0
  0.328125   0.781250 0
  0.265625   0.687500 0
  0.265625   0.703125 0
  0.156250   0.109375 0
  0.578125   0.890625 0
  0.484375   0.984375 0
  0.062500   0.203125 0
  0.328125   0.718750 0
  0.343750   0.734375 0
  0.343750   0.750000 0
  0.453125   0.500000 0
  0.437500   0.500000 0
  0.234375   0.093750 0
  0.171875   0.375000 0
  0.437500   0.531250 0
  0.468750   0.546875 0
  0.453125   0.546875 0
  0.187500   0.015625 0
  0.187500   0.000000 0
  0.609375   0.781250 0
[...]
CELL_DATA 7648
SCALARS scalar_value float 1
LOOKUP_TABLE default
0.0348405
0.0368488
0.0415439
0.0338474
0.016259
0.0148989
0.016028
0.0133392
0.0352654
0.0399429
0.0422174
0.00849557
0.00723688
0.00691671
0.0113486
0.0101936
0.010723
0.00854153
7.51353e-05
7.20051e-05
8.47913e-05
6.23503e-05
1.12682e-05
7.23344e-06
7.88379e-06
1.13706e-05
6.2394e-06
0.0557529
0.0569254
5.46302e-07
6.72493e-07
9.13019e-07
5.07817e-07
1.49438e-06
1.82701e-06
2.40739e-06
1.45426e-06
5.12108e-07
6.65597e-07
8.89676e-07
3.8515e-07
8.45941e-07
0.017734
0.0203917
0.0190977
0.0749995
0.077764
0.0852309
4.60451e-06
0.105368
0.0849032
3.99198e-05
6.80446e-06
8.28897e-06
0.00329521
1.02465e-05
0.00359589
0.00260361
2.51414e-06
3.66508e-06
5.35004e-06
2.70635e-05
1.12595e-05
0.00317978
0.00296189
1.16521e-10
1.4607e-10
5.47366e-06
0.00206379
3.05071e-09
0.00181251
0
0.0048089
0.00747916
0.00472956
1.58119e-10
0.0498015
2.72186e-10
0.00383208
0.0123296
0.015138
0
2.81002e-09
1.42804e-10
0.0739838
1.80026e-06
0.00121689
0.00111018
0.00274922
0
1.93337e-07
0
0.000101526
0.000132322
0
4.36355e-06
0.0130709
7.89917e-06
0.018116
0.0195331
0.00940269
1.43364e-05
0.00995663
0.0155748
3.24393e-05
0.000762192
0.00754159
0.0699035
0.0550419
1.3668e-07
3.80496e-06
0.00105439
0.00100763
1.14111e-10
0.000162005
1.20517e-10
0.000200373
0.000123263
3.67611e-06
0.0132686
0.0121994
0
0
0.000160164
0
1.98958e-10
1.08679e-10
0.107069
0.115318
0.0947047
8.40527e-10
0.0394247
0
0.00988401
0.00343238
0.00757278
0.07392
1.06345e-05
1.59077e-06
0.0635933
0.00501692
0.0655443
0.0693666
6.85741e-07
0.0658708
0.0847025
0.00996049
3.97396e-05
0.0722048
0.00275395
0.002508
1.30796e-05
1.68548e-05
2.14998e-05
0.000588278
0.000574179
0.0233981
1.02927e-06
0.12576
8.81147e-06
0
8.59613e-05
9.93946e-05
0.00411978
0.0941202
0.0950249
7.3645e-07
0.0834985
2.15068e-05
0.0239111
0
0.16981
0.0659937
0.000666498
0.000935333
7.88146e-05
0.0272927
0.0711695
0.00207327
0.079572
0.0817682
0.00258068
0.073289
0.054264
0
8.07963e-05
0.110139
0
0
0.057471
0
0.0560716
0.0084596
1.18887e-09
6.16009e-07
0.00872615
0.0104635
0.00802937
1.07472e-10
1.42619e-10
1.36281e-10
0.0460693
0.00011549
0.10096
0.0959457
8.50816e-05
1.28345e-05
0.00741678
0.0066445
0.00649173
1.35735e-06
2.12256e-06
3.13653e-06
1.90701e-06
0.159415
0.000215877
0
0.0239452
0
0.00673913
0.0133758
0.14561
0.150382
4.80313e-07
0.134876
9.65614e-08
0.00273892
0.00502099
0.110539
0.100153
0.0543927
0.0567672
0.0764491
0.00127652
0.07102
0.0666141
0.0669072
0.0630306
0.0532264
1.06722e-10
0.0467726
0.000468473
0.0015536
0.00249429
0.00252152
0.145207
0.00409811
0.133695
0.139907
6.74378e-08
0.121724
0.00284569
1.21081e-05
1.57822e-05
1.47166e-05
0.0511841
0.000651664
0.00393091
0.00375765
5.77639e-05
6.91867e-05
6.65444e-05
0.0405429
1.6884e-06
4.69214e-07
0.144446
8.01342e-07
0.11336
5.40379e-07
0.128654
0.168123
4.69658e-05
0
0.0119392
0.000792525
2.51452e-07
0.0338951
0.00641917
0.00102418
0.00125356
2.98629e-07
0.0520497
0.00518797
0.000843807
0.00214632
0.0154225
0.000788421
3.02679e-07
5.54086e-08
0.0306973
9.72079e-08
0.00562146
0.00220349
7.17514e-09
0.00105612
0.00106108
9.40196e-09
0.00129045
0
0.00348125
5.96416e-05
0.00310174
0.00256264
0.00325578
4.12007e-05
3.37281e-05
2.97913e-05
0.000159129
0.00864742
0.000506477
0.000397808
0.0371519
0.00793839
2.65935e-09
0.00335444
0.00830295
0.000195294
0.00335992
0.000158764
0.00603383
0.000122059
2.85507e-05
0.042138
0.032698
0.0438389
0.000477822
0.000110404
0.0297192
0.0365718
0.000234388
0.0232167
1.27451e-05
0.0865905
0.0303087
0.00399521
0.0287187
0.00352758
0.0258697
0.022673
3.35321e-05
0.0205455
0.0325492
0.0273581
0
0.00950506
0.0175584
0.0224592
0.001487
3.51299e-08
0
1.20918e-10
1.07752e-10
8.399e-05
0.0240114
4.01586e-08
0.0256748
1.48099e-07
0.01087
0.00981531
0.00871758
0.000699793
0.000598131
0.000664438
0.00549321
0.0331628
0.00425286
0.0246946
1.4654e-09
2.71078e-08
1.90858e-08
0.0409707
0.00451019
1.17917e-07
0.121634
6.84573e-08
0.137383
0.000878873
1.61548e-08
0.00136437
3.50854e-05
0.000799762
0.027422
0.00054836
0.00174838
0.117151
0.00492955
0.116477
0.00298238
5.5453e-07
0.0187726
0.0135564
0.00819105
0.0322958
0.0223434
0.0427903
3.03482e-06
5.39776e-06
0.0246433
0.00238379
0.0100662
7.85548e-07
0.0603026
0.0272412
0.00114348
0.0290982
0.00710494
2.72955e-07
0.0961129
0.0509692
2.18589e-06
0.00133015
0.00636309
0.00453778
0.00150463
0.00303322
0.0019871
0
0.00188018
7.79691e-08
0.00320372
0.0856353
0.00488992
0.00371381
2.23408e-05
6.77192e-05
5.9962e-05
0.00887774
6.14259e-05
0.00912166
3.58037e-06
0.0275809
7.43144e-05
2.73191e-06
2.59514e-08
2.99263e-06
1.77579e-06
6.58943e-07
0
0.0483639
0.0380669
0.000218502
0.0333746
3.60386e-05
4.91538e-05
0.0214371
6.61417e-05
0.0202653
0.0165769
0.0246021
0.0289852
0.0580725
8.73466e-05
2.6451e-06
7.47412e-05
0.0256024
3.90313e-06
5.01149e-06
4.22576e-06
0.00511266
0.00416498
0.0495606
7.09177e-05
0.0235355
0.016276
0
2.01918e-06
1.6411e-06
1.43163e-08
0
5.91413e-08
0.0907806
9.42192e-09
0.00126159
0
1.33885e-08
0.00119685
1.45919e-05
0.0122402
0
0.044337
1.83878e-10
0.000740166
6.798e-10
3.42207e-10
0.0750605
0.0850048
0.094233
0.0302574
0.000109629
0.000161406
1.43152e-09
0.00026298
2.00142e-09
0.00100183
0.00419974
3.90915e-10
5.51907e-05
0.0106468
0.00923264
1.95732e-06
1.46771e-06
0.0123921
0.00520706
8.7292e-07
6.41748e-07
0.0767978
4.67268e-06
3.667e-06
3.36739e-06
2.82846e-06
0.019041
0.00914019
4.84019e-06
1.81152e-08
0.0103192
8.97651e-07
0.127223
3.69069e-06
8.35397e-07
0.122779
2.96337e-06
0.0762912
1.20376e-06
2.02296e-06
0.00326836
0.00261992
0.0365089
0.0646401
0.00258451
0.00187834
0.0561981
6.92297e-07
0.00347042
9.5924e-07
0.00126573
0.0905577
0.00154147
0.0919611
0.000989963
0.00200296
0.00128085
0.00186543
9.66774e-07
9.71899e-07
0.0375318
0.0032297
0.00111313
0.00212446
0.00277464
0.00242463
0.00189512
0.0449945
0.00324952
0.00288418
0.0120896
0.0116214
0.0155408
0.136305
3.57395e-06
1.59661e-06
0.125691
6.46172e-07
2.2006e-07
1.06658e-06
0.0146492
0.00160837
3.34263e-05
0.0166919
0.0158283
0.0200446
2.81768e-05
0.00322274
0.00213088
0.0618185
9.68494e-07
0.00255961
0.141779
5.00048e-07
0.00136077
8.39885e-05
0.00855396
0.00844946
2.54925e-07
4.05545e-07
0.00307351
1.61661e-07
0.0206315
0.104248
3.12409e-07
0.1553
0.152427
1.39992e-09
9.79341e-07
2.16673e-06
0.0662858
5.09835e-06
0.00524721
0.115387
1.301e-06
0.134229
1.8574e-06
1.2238e-06
3.85777e-07
8.07997e-07
0.119739
0.000637797
9.83769e-07
0.00228588
0.00408295
0.019576
0.0178524
0.0164562
0.0284117
0.0262784
0.0289657
6.43247e-05
0.0148434
5.3621e-05
2.27781e-06
2.39747e-07
0.0300229
3.7353e-07
4.45353e-07
1.38487e-06
0.000692969
1.75184e-06
1.13889e-06
1.9389e-07
2.82548e-07
8.13737e-07
1.26713e-06
0.00457665
1.44538e-07
1.68688e-07
0.050922
0.000858901
0.0461198
0.0762576
0.00635821
0.00570022
0.00976494
0.00888783
0.0105269
0.112707
0.0208609
0.122353
0.0082211
3.83378e-08
6.23949e-08
0
0.000371952
0.0869931
0.0964117
1.20871e-07
1.88686e-10
0.00205527
1.62973e-07
0.00161922
0.00467726
0.0010421
0.019123
0.0695298
0.000829349
1.49329e-06
9.26044e-06
0.072486
1.66789e-06
1.13109e-05
0
0
0
1.03062e-05
0.0234246
3.06483e-06
0.0195959
4.09388e-05
0.0205474
0.0214232
0.0256075
0.0662516
0.0698928
0.0639424
0.0442706
0
0.00880736
0.15748
0.145895
0.128076
2.32125e-07
0.000273766
0.133652
0.143727
7.13453e-07
0.00996895
0.132371
0.14603
0.0147525
4.11402e-05
0.0282594
0.0382346
0.0343373
0.00215525
0.0619167
0.000823343
0.0503003
0.000392651
0.0345627
0.0391152
0.0823001
0.0855061
0.0956533
0.0903552
0.0896652
0.0629352
0.0506183
0.0812134
0.0826384
8.75937e-05
0.000500577
0.0864384
0.0783997
0.0448145
0.0456852
0.0398306
0.0956729
0.0982529
0.127557
0.0944336
0.0301699
0.0349208
0.0392207
0.107641
0.111883
0.109291
2.01729e-05
1.23571e-05
0.012107
0.121492
0.124655
0.120751
0.00301382
0.130483
0.133801
0.125606
6.32779e-06
0.0184249
0.00110663
0.0217701
0.0446492
1.66718e-05
0.0964797
0.103192
0.103366
4.63221e-07
1.10575e-06
6.26729e-07
7.24117e-07
0.00255374
0.00203923
2.26899e-08
0.00454873
0.000156762
4.26941e-08
8.35185e-08
0.000512499
1.85126e-07
0.000559058
0.149325
0.00171591
0.00164122
0.00168066
0.0014044
0.00297032
0.00263956
0.00231716
0.00132913
5.85782e-07
0.00172943
0.00149915
0.0417945
0.047818
0.000624113
0.0010671
1.55382e-10
0.00162528
5.45993e-10
0.0330063
0.0389071
0.00921089
0.000909918
0.000785749
3.60716e-07
0.000225209
3.38859e-05
0.00224559
0.000437567
2.19769e-05
0.00478048
3.47128e-08
0.00647835
6.86873e-09
1.55156e-07
0.0049118
0.000101389
0.0337645
8.76895e-08
0.124322
0.043374
0.000291543
0.000130368
0.0356486
1.33198e-08
0.00121803
0.00528325
0.00106785
0.00115874
0.0285108
0.00160378
0.105794
0.0998817
2.59085e-07
0.00269073
0.00184998
4.14412e-07
2.19315e-07
0.0171002
0.0209531
0.0841805
2.63749e-09
0.039586
5.13699e-09
0.000352935
0.103137
0.103254
0.0927707
0.00144841
0.00132628
0.00425233
0.00874421
0.00776838
8.46124e-06
0.0752582
0.0841206
0
8.83703e-05
0.0700127
0.00608247
4.27701e-06
2.85804e-05
0.176435
0.000405084
0.00689129
0.153327
0.160062
0.0118059
0.151973
4.17723e-07
0.0507527
0.00251101
0.0110261
0.139961
7.60342e-06
0.145068
0.000511536
1.44611e-06
4.72629e-10
0.00716371
1.73484e-05
0.122973
2.22309e-05
5.88727e-05
0.0211033
5.02233e-05
0
0
0
9.38293e-05
2.64566e-05
0
0.0703302
0
0.0456095
2.11291e-05
2.20108e-05
0
0.000109033
0.0282688
0.0370486
0.00022685
0
0
0.0385589
0.0434738
0.0364952
0.053789
0.0242913
1.81217e-10
0
0.0255204
0.0296844
0.00115678
0.0204986
0.00381206
4.68805e-08
0
2.23289e-05
0.00381644
2.37012e-05
1.46853e-05
0.0383261
0.000158477
7.21756e-05
0.0300218
0.0675019
0.0705069
0
1.28245e-05
0.160559
1.61548e-05
1.61802e-05
3.25904e-05
0.019484
8.23534e-05
1.96821e-05
8.68116e-06
0.000151047
0.0207649
2.87928e-05
0.0215009
0.0156252
0.031704
5.59578e-09
0.0275668
0.0325389
0.0367179
0.0632399
0.000773744
0.050938
0.000417282
0.000209401
0.0394153
0.0189162
1.44682e-05
0.0230325
7.36194e-05
0.0236964
0.0444696
0
0.00121589
2.3624e-08
0.00101298
1.16086e-05
2.20901e-05
0.00211617
0.000273796
0.00690525
0.0653505
6.61986e-09
3.03035e-09
3.26829e-06
0.0410883
0.0429262
0
0.00167225
1.13236e-08
0
1.60203e-09
0.0277399
5.94223e-05
0.000424939
0
0.0666726
1.72314e-05
0
0.0342423
0.0123847
0.0460155
0.00372864
0.0498025
0.0392137
0.092325
0.0486442
0.000715617
0.000125046
0.153644
0.0219652
5.71001e-05
0.156145
0.162295
4.47048e-06
0.00279026
0.000156959
0
0.0382565
0.0598231
0.00159012
0.000920438
0.0509571
0.0616205
0.00451668
1.94525e-10
0.0494661
0.000102697
0.166276
0.0552059
0.0909084
0.0507721
0.102826
0.00385735
0.00219937
0.0475723
0.00107508
0.00232951
0.0862384
0.00192245
0.00398136
0.00117275
6.88411e-05
0.077169
0.00193718
0.0329362
9.74937e-05
0.104327
0.00894961
0.000473088
0.000220845
0.0400319
0.0117332
4.13278e-09
0.00825185
8.27559e-08
1.62039e-08
6.80726e-08
0.00220333
2.6005e-08
0.0540914
0.00105784
0.0192603
0.0131561
0.000238063
0.0338095
0.0401292
0.000181468
3.63041e-07
2.9808e-08
1.20174e-06
0.0141789
0
0
0
3.45734e-05
0.017797
0.0013351
0.0226244
0.0505411
0.0517809
0.00018448
4.49885e-05
0.174215
0.00056551
6.88817e-05
0.0111554
0.0300008
0.000119411
2.15454e-05
8.67831e-08
2.73213e-05
0.000258872
0.0395848
0.174329
0.0109167
0.171479
1.83487e-05
9.6597e-06
1.06819e-05
2.10299e-05
0.0185831
0.0101261
0.00234437
0
0.0258109
0.0143147
0
0.00381135
0.0984622
5.41144e-06
0.0155005
0.000468349
0.0014812
0
7.39175e-06
0.00338758
0.0199157
0
0.0351474
1.98139e-07
0.00431535
0.0016321
0.0035131
0.0342196
0
4.05671e-07
6.36648e-06
0.0080416
0.0443445
0.00104628
2.38289e-07
0.0317154
0.100907
2.0751e-06
0.000239059
0.0357078
0.0408138
0.000509075
7.95857e-08
0.010779
0.026066
0
0.00327614
1.77973e-10
1.23931e-05
8.62085e-06
0
6.0208e-05
0
0.0183723
0.138792
0.0323635
1.50231e-08
0.0682956
1.09056e-06
0.0081414
0.0113783
4.94879e-05
1.0534e-05
0.0660413
0.00164103
3.23895e-07
0.0762784
9.16498e-08
0.00890416
0.0046156
0.0139687
0.165774
2.61676e-05
0.0300185
3.059e-05
0.0179615
0.00696953
1.49196e-06
2.81153e-07
0.00769421
4.76457e-08
2.78994e-06
8.11316e-08
0.00728815
7.84014e-09
0.0809502
3.04829e-05
0.0159864
0.0245091
6.65508e-05
1.02287e-05
3.83263e-07
9.30596e-06
0.00269495
0.000120897
0.10209
0.0836094
0.000765346
0.0158103
5.29483e-05
0.0263919
0.0436735
0.0870994
0.0102919
0.0252976
4.45117e-05
0.0107487
0.0509601
0.0073784
0.0780482
0.0094124
0
0.0649553
0.0835228
4.8942e-10
0.0129012
1.23746e-06
0.0284313
0.00268235
8.01919e-10
4.51906e-05
0.0761077
0.0763473
1.74881e-05
8.19752e-05
0.00422841
0.0120088
0
0.0714323
0.00532408
0.0185304
2.40176e-05
0.000151027
1.25047e-09
0.00062305
0.00240123
0
0.00728291
0
0.0362985
0.110793
7.44382e-07
0.0142658
0
0.109219
0.00181537
0.00130512
0.0928214
0.00139499
0
3.59415e-05
0.00149343
0.0021691
2.44296e-08
8.2915e-10
3.98815e-07
3.16924e-06
3.04087e-05
0.127157
6.01305e-10
1.1412e-06
0.135121
0.121018
5.93867e-07
0.13395
0.0206114
0.156482
0.12818
0.0111652
0.0354022
0.0573482
0.0233771
0.0123609
0.153915
2.1056e-06
0.0282433
0.00028723
1.33852e-06
0.133415
0.000753691
0.0011173
0.0186014
1.58735e-05
0.0152768
0.000489684
0.000777103
8.78071e-08
6.12428e-06
0.150868
0.0152449
6.95033e-05
0.0239475
0.00118345
0.0122994
0
0.0160052
0.00709162
0
0.0268058
0.00157213
0.145716
0.064966
0.00237537
0.00733584
2.56419e-06
0.135631
2.43312e-06
1.01234e-06
0.0019033
0.00224155
6.47765e-10
0.0281343
0.000799751
0.0129934
0.00735619
0
0.000899037
0.0477345
3.6813e-10
0
0.00186436
2.50182e-09
9.36035e-07
1.09087e-07
0.00694472
0.00532614
0.042563
2.83846e-10
0
0.0294715
0
0
0.00118499
0
0.00911533
2.09265e-10
0
2.75991e-05
0.0171788
0.025746
6.0488e-05
4.35005e-09
0
0.100832
0.101372
0.00155098
0.084516
0.100096
0.00209904
1.9416e-09
2.91296e-07
0.00460654
0.00181197
4.94056e-09
5.93669e-09
3.07427e-08
0.00641815
0.00116292
0.000161327
0.000559566
1.65859e-09
5.81241e-07
3.11219e-09
6.73471e-08
1.14083e-09
0.0111094
0.000192797
2.20406e-10
0.000527049
0.037285
0.0011386
0.00145734
0.0178342
0.0945462
0.000919707
0
0.00211602
7.45906e-10
0.0917718
0
0.000231838
0.0305325
0.000527232
1.50295e-06
0.0704723
9.76954e-06
0
0.0743215
0.00146549
0.00846683
0.0202693
0.00326987
0.0463094
0.00173162
5.23195e-05
0.000128504
0.0801382
0.0772165
0.0102718
1.23118e-05
0.0287918
0.000100684
0
0
4.44278e-06
0.00370504
0.13388
0.140569
0.00616265
0.0116109
5.61461e-05
0
0.0626181
0.030085
0.0736166
0
0.0849078
0.00216567
0.035317
2.6889e-06
0.121504
0.00449485
0.128533
0.00247536
0
0.042579
9.45761e-05
0.130946
0.101094
0.00164914
0.0040359
1.50058e-06
1.32282e-06
3.76358e-10
0.000162421
0.0270501
0.000745106
0.000665284
3.91699e-07
9.50544e-10
0.0010191
1.45855e-05
0.0059892
0.165297
0.165778
0.169454
0.142178
0.000586465
4.23421e-10
0.0402397
0.147505
0
3.0921e-05
0.0138347
0.0198435
6.69263e-05
9.47077e-08
0.135383
0.00485326
0.122756
2.45474e-06
0.0031571
4.73538e-07
4.45922e-07
0.000483771
0.0999578
7.18401e-09
0.142266
0.107757
0.00217736
0.0152771
0.0440801
0.0671481
0
0.0833296
0.176373
0.176268
0.000400149
0.16385
0.113914
0.0028681
0.136585
0.00755305
1.53497e-07
0.037667
2.1687e-06
0.00202227
0.136484
0.075632
7.76541e-05
0.122755
0.031409
0.00176732
0.122267
0.128647
0.00238701
0.121863
0.0116868
0.0107508
0.0377675
0.0973109
0.0252762
3.19854e-10
0.0939247
1.89148e-06
0.000489643
2.74631e-07
0.00249639
0.000314456
0.0061065
5.76307e-06
0.128682
3.67737e-10
0.0321009
0.170559
0.0253098
0.0170143
0.163955
0.0190358
0.000722457
0.0135456
5.45965e-09
0.128739
0.119048
0.00108533
0.00282288
0.0325886
0.0418113
4.27532e-08
0.0405276
0.0269212
7.24144e-05
0.00379774
0.00163317
0
0.0022614
7.58766e-05
0.0002936
0.0139135
0.00214861
0.0032078
0.000111792
0.000191246
0.0252445
0.0251503
0.0255886
2.22395e-06
0.139752
0.0106369
0.094984
0.0240016
0.0115102
0.0944698
0.000182277
6.997e-05
0.0900795
0.000961079
0.0154706
6.74582e-05
0.131091
2.29898e-07
0.00425786
0.123899
0.129415
1.21867e-10
0.00354904
0.0775553
0.0024384
0.00526841
6.94822e-10
0.00339697
0.000577981
0.110805
1.05837e-06
0.0958419
0.00224104
5.90155e-06
0.00552884
0.0096013
1.35849e-05
0.0263107
1.01422e-05
0.00237566
0.115771
8.59471e-07
0.000368259
0.0261535
0.00405675
7.68231e-07
0.00235076
0.0404584
4.78616e-06
0.0157344
1.21192e-05
1.71877e-05
0.0167053
0.00394036
0.00284498
0.00924754
0
0
0.00015573
0.00647388
0.0120666
1.01377e-10
0.00859006
0.0115598
0.000130023
1.05089e-07
2.19349e-05
0.000531961
0.000101729
0.0460087
3.46064e-05
0.0277784
7.61752e-06
9.94942e-06
0
2.57013e-05
0
0
0.0339906
0.169645
0.000135108
0
0.0406369
0.000279328
6.04113e-05
0.000370584
1.11421e-08
0.0198431
0.0703006
0.00131129
0.0764161
0.0132027
0.00018301
0.000262425
3.15895e-08
0.00800589
6.0548e-06
2.73726e-06
0.00375169
0.0126744
0.000270917
0.00647835
3.34265e-05
0.0107816
0.0162965
0.078846
1.4536e-08
0.00705798
0.0334918
0.0147569
0.0931924
0.00177165
0.0262358
0.0826249
0.097732
0.0391653
0.0524413
0.000128575
0.00035516
0.00294942
0.00668552
0.0841108
1.45986e-06
0.0123926
0.143618
0.0194564
0.106326
1.48578e-06
4.54514e-07
0.00351861
0.124115
0.00847719
0.00397631
0.110221
0.011419
0.0250168
0.124343
0.00348955
0.114902
0.0591224
0.0998956
0.00829181
6.85244e-10
0.0117746
0.00184463
0.0906983
0
0.0698005
3.91338e-05
0.0919152
0.000177928
0.0148626
4.54595e-05
9.10685e-09
0.00244811
3.41376e-05
0.0229045
0.112823
2.70491e-05
0.00166113
8.01781e-05
0.173596
0.000390342
6.24991e-07
6.09948e-06
0.000299571
0.173922
0.173696
0.0177734
0.00212491
0.000144266
0.137598
0.0110113
0.0254623
0.114664
0.104683
8.05442e-07
0.00573016
0.123676
0.00148632
0.0247851
0.0959039
0.163512
0.0362176
1.17111e-08
1.01142e-06
0.0897218
0.00238867
0.00164149
0.0767495
0.013081
4.72039e-05
0.031047
0.0299546
0.0290565
0.107536
0.115593
1.86556e-06
0.0297125
0.000133731
0.104875
1.93229e-06
0.0250223
3.16344e-07
0.000492868
1.72367e-07
0.0146047
0.00268651
0.00114691
0.000197903
0.0403526
0.0679489
0.00188945
0.0275051
1.46765e-07
0.0100902
0.00143192
5.20181e-09
6.7639e-08
0.00922025
0.0188288
2.7651e-08
0.106473
5.94738e-06
0
0
0.128315
6.09141e-07
0
0.00531384
0.00879139
1.53385e-05
0.0299699
9.3432e-05
0
0.000784583
7.12562e-05
0.000107707
0.00249026
2.07941e-05
0.107373
1.53937e-05
0
0
0.0568804
0.00100299
1.88891e-05
4.91087e-06
0.114777
0
0.00127928
0
0.153709
0.00116044
7.54894e-06
0.147051
0.0228026
1.00149e-10
0
0.00621954
0.0265185
5.11764e-06
0.0196195
0.000252379
1.58681e-08
0.0456869
0.105979
0.0463458
0.115375
0.0486138
0.00767152
0.000851205
0.117308
0.0415599
5.33285e-07
5.54204e-06
7.46253e-05
0.125397
0.000183189
6.6594e-05
0.141213
4.81403e-06
0.0128361
0.140951
0.103707
0.00176382
1.88575e-08
1.20553e-07
0.0268662
0.00137168
1.64799e-10
0.00146895
0.00173608
0.0558214
0.0081077
0.00758144
0.0251788
0.108835
0.00148715
0.00948959
0
0
0.0111227
1.13393e-10
0.0144646
0.00148901
1.33842e-05
2.18824e-07
0.00492265
0.120873
0.0670126
2.92929e-06
4.62607e-06
3.82326e-06
4.71827e-06
0.0104869
2.36604e-06
0.00952518
0.00252264
0.077911
3.35835e-07
0.0591135
2.90402e-06
0.0133524
3.77305e-06
5.69774e-07
3.87672e-06
0.0312938
0.167298
4.59352e-06
0.0142386
2.71461e-05
0.0118313
0.0637049
1.8824e-06
3.51508e-05
0.0353512
0.0605575
0.00142556
0.0231798
4.85311e-06
0.150535
0.00258049
0.0173695
3.09212e-05
1.40441e-05
0.0110584
0.155509
7.69922e-05
0
0
1.09327e-05
0.000191477
3.2927e-05
0.0231254
0.0593488
0.0546693
8.79232e-08
0.0020129
0.00241579
0.0026201
0.136736
0
0.0371381
0
0.00313154
0.0859265
1.73498e-05
0
7.10361e-06
5.33788e-07
0.0389889
0.0386558
0.0171568
0
0
0.0306934
8.38359e-05
0.000155542
0.0841915
0.00210325
0.0580003
1.57759e-08
2.61457e-05
0.00439576
0.000813732
0.0376095
0.00781454
0.0339798
2.14255e-08
1.222e-07
1.65188e-07
4.70224e-08
7.13238e-06
6.46531e-08
0.00144215
0.00151255
0.00464496
0.0201338
0.0450822
0.0116336
7.6047e-05
4.14014e-09
0.000343634
0.00309478
0.00015081
3.55138e-05
0.000425993
2.27234e-06
0.0193081
0.025694
0.000525152
0.00221661
0.0231444
0.0690669
1.69254e-10
1.2774e-10
1.13752e-06
0.0521568
0.0634406
7.20309e-06
6.15103e-07
0.0592767