# vtk DataFile Version 2.0
Unstructured Grid by M++
ASCII
DATASET UNSTRUCTURED_GRID
POINTS 4072 float
  0.609375   0.843750 0
  0.562500   0.843750 0
  0.531250   0.843750 0
  0.875000   0.828125 0
  0.984375   0.828125 0
  0.953125   0.828125 0
  0.937500   0.828125 0
  0.843750   0.828125 0
  0.812500   0.828125 0
  0.781250   0.828125 0
  0.765625   0.828125 0
  0.734375   0.828125 0
  0.703125   0.828125 0
  0.671875   0.828125 0
  0.640625   0.828125 0
  0.609375   0.828125 0
  0.593750   0.828125 0
  0.562500   0.828125 0
  0.546875   0.828125 0
  0.531250   0.828125 0
  0.515625   0.828125 0
  0.968750   0.812500 0
  0.937500   0.812500 0
  0.921875   0.812500 0
  0.890625   0.812500 0
  0.859375   0.812500 0
  0.828125   0.812500 0
  0.796875   0.812500 0
  0.765625   0.812500 0
  0.750000   0.812500 0
  0.718750   0.812500 0
  0.687500   0.812500 0
  0.656250   0.812500 0
  0.625000   0.812500 0
  0.593750   0.812500 0
  0.578125   0.812500 0
  0.546875   0.812500 0
  0.531250   0.812500 0
  0.515625   0.812500 0
  0.984375   0.796875 0
  0.562500   0.015625 0
  0.953125   0.796875 0
  0.921875   0.796875 0
  0.906250   0.796875 0
  0.875000   0.796875 0
  0.843750   0.796875 0
  0.812500   0.796875 0
  0.781250   0.796875 0
  0.750000   0.796875 0
  0.734375   0.796875 0
  0.703125   0.796875 0
  0.671875   0.796875 0
  0.640625   0.796875 0
  0.609375   0.796875 0
  0.578125   0.796875 0
  0.562500   0.796875 0
  0.531250   0.796875 0
  0.515625   0.796875 0
  0.968750   0.781250 0
  0.546875   0.000000 0
  0.937500   0.781250 0
  0.906250   0.781250 0
  0.890625   0.781250 0
  0.859375   0.781250 0
  0.828125   0.781250 0
  0.796875   0.781250 0
  0.765625   0.781250 0
  0.734375   0.781250 0
  0.718750   0.781250 0
  0.687500   0.781250 0
  0.656250   0.781250 0
  0.625000   0.781250 0
  0.593750   0.781250 0
  0.562500   0.781250 0
  0.546875   0.781250 0
  0.515625   0.781250 0
  0.984375   0.765625 0
  0.953125   0.765625 0
  0.921875   0.765625 0
  0.890625   0.765625 0
  0.875000   0.765625 0
  0.843750   0.765625 0
  0.812500   0.765625 0
  0.781250   0.765625 0
  0.750000   0.765625 0
  0.718750   0.765625 0
  0.703125   0.765625 0
  0.671875   0.765625 0
  0.640625   0.765625 0
  0.609375   0.765625 0
  0.578125   0.765625 0
  0.593750   0.750000 0
  0.562500   0.765625 0
  0.546875   0.765625 0
  0.531250   0.765625 0
  0.562500   0.750000 0
  0.968750   0.750000 0
  0.937500   0.750000 0
  0.906250   0.750000 0
  0.875000   0.750000 0
  0.859375   0.750000 0
  0.828125   0.750000 0
  0.796875   0.750000 0
  0.765625   0.750000 0
  0.734375   0.750000 0
  0.703125   0.750000 0
  0.687500   0.750000 0
  0.671875   0.750000 0
  0.656250   0.750000 0
  0.625000   0.750000 0
  0.546875   0.750000 0
  0.531250   0.750000 0
  0.515625   0.750000 0
  0.562500   0.734375 0
  0.984375   0.734375 0
  0.953125   0.734375 0
  0.921875   0.734375 0
  0.890625   0.734375 0
  0.859375   0.734375 0
  0.843750   0.734375 0
  0.812500   0.734375 0
  0.781250   0.734375 0
  0.750000   0.734375 0
  0.718750   0.734375 0
  0.687500   0.734375 0
  0.671875   0.734375 0
  0.656250   0.734375 0
  0.640625   0.734375 0
  0.546875   0.734375 0
  0.531250   0.734375 0
  0.515625   0.734375 0
  0.562500   0.718750 0
  0.968750   0.718750 0
  0.937500   0.718750 0
  0.906250   0.718750 0
  0.875000   0.718750 0
  0.843750   0.718750 0
  0.796875   0.718750 0
  0.765625   0.718750 0
  0.734375   0.718750 0
  0.703125   0.718750 0
  0.687500   0.718750 0
  0.671875   0.718750 0
  0.656250   0.718750 0
  0.625000   0.718750 0
  0.546875   0.718750 0
  0.531250   0.718750 0
  0.515625   0.718750 0
  0.562500   0.703125 0
  0.953125   0.703125 0
  0.921875   0.703125 0
  0.890625   0.703125 0
  0.859375   0.703125 0
  0.828125   0.703125 0
  0.781250   0.703125 0
  0.750000   0.703125 0
  0.718750   0.703125 0
  0.687500   0.703125 0
  0.656250   0.703125 0
  0.546875   0.703125 0
  0.531250   0.703125 0
  0.515625   0.703125 0
  0.984375   0.687500 0
  0.937500   0.687500 0
  0.921875   0.687500 0
  0.906250   0.687500 0
  0.875000   0.687500 0
  0.843750   0.687500 0
  0.812500   0.687500 0
  0.765625   0.687500 0
  0.734375   0.687500 0
  0.703125   0.687500 0
  0.671875   0.687500 0
  0.640625   0.687500 0
  0.593750   0.687500 0
  0.562500   0.687500 0
  0.546875   0.687500 0
  0.531250   0.687500 0
  0.515625   0.687500 0
  0.968750   0.671875 0
  0.937500   0.671875 0
  0.921875   0.671875 0
  0.906250   0.671875 0
  0.890625   0.671875 0
  0.859375   0.671875 0
  0.828125   0.671875 0
  0.796875   0.671875 0
  0.765625   0.671875 0
  0.750000   0.671875 0
  0.718750   0.671875 0
  0.687500   0.671875 0
  0.656250   0.671875 0
  0.625000   0.671875 0
  0.593750   0.671875 0
  0.578125   0.671875 0
  0.546875   0.671875 0
  0.531250   0.671875 0
  0.515625   0.671875 0
  0.984375   0.656250 0
  0.953125   0.656250 0
  0.937500   0.656250 0
  0.921875   0.656250 0
  0.906250   0.656250 0
  0.875000   0.656250 0
  0.843750   0.656250 0
  0.812500   0.656250 0
  0.781250   0.656250 0
  0.750000   0.656250 0
  0.734375   0.656250 0
  0.703125   0.656250 0
  0.671875   0.656250 0
  0.640625   0.656250 0
  0.609375   0.656250 0
  0.578125   0.656250 0
  0.562500   0.656250 0
  0.531250   0.656250 0
  0.515625   0.656250 0
  0.968750   0.640625 0
  0.937500   0.640625 0
  0.906250   0.640625 0
  0.890625   0.640625 0
  0.859375   0.640625 0
  0.828125   0.640625 0
  0.796875   0.640625 0
  0.765625   0.640625 0
  0.734375   0.640625 0
  0.718750   0.640625 0
  0.687500   0.640625 0
  0.656250   0.640625 0
  0.625000   0.640625 0
  0.593750   0.640625 0
  0.562500   0.640625 0
  0.546875   0.640625 0
  0.515625   0.640625 0
  0.984375   0.625000 0
  0.953125   0.625000 0
  0.921875   0.625000 0
  0.890625   0.625000 0
  0.875000   0.625000 0
  0.843750   0.625000 0
  0.812500   0.625000 0
  0.781250   0.625000 0
  0.750000   0.625000 0
  0.734375   0.625000 0
  0.718750   0.625000 0
  0.703125   0.625000 0
  0.671875   0.625000 0
  0.640625   0.625000 0
  0.609375   0.625000 0
  0.578125   0.625000 0
  0.562500   0.625000 0
  0.546875   0.625000 0
  0.531250   0.625000 0
  0.968750   0.609375 0
  0.937500   0.609375 0
  0.906250   0.609375 0
  0.875000   0.609375 0
  0.859375   0.609375 0
  0.828125   0.609375 0
  0.796875   0.609375 0
  0.765625   0.609375 0
  0.750000   0.609375 0
  0.734375   0.609375 0
  0.718750   0.609375 0
  0.703125   0.609375 0
  0.687500   0.609375 0
  0.656250   0.609375 0
  0.625000   0.609375 0
  0.593750   0.609375 0
  0.562500   0.609375 0
  0.546875   0.609375 0
  0.531250   0.609375 0
  0.515625   0.609375 0
  0.984375   0.593750 0
  0.953125   0.593750 0
  0.921875   0.593750 0
  0.890625   0.593750 0
  0.859375   0.593750 0
  0.843750   0.593750 0
  0.812500   0.593750 0
  0.781250   0.593750 0
  0.750000   0.593750 0
  0.734375   0.593750 0
  0.718750   0.593750 0
  0.687500   0.593750 0
  0.671875   0.593750 0
  0.640625   0.593750 0
  0.609375   0.593750 0
  0.578125   0.593750 0
  0.562500   0.593750 0
  0.546875   0.593750 0
  0.531250   0.593750 0
  0.515625   0.593750 0
  0.968750   0.578125 0
  0.937500   0.578125 0
  0.906250   0.578125 0
  0.875000   0.578125 0
  0.890625   0.562500 0
  0.843750   0.578125 0
  0.828125   0.578125 0
  0.796875   0.578125 0
  0.765625   0.578125 0
  0.734375   0.578125 0
  0.703125   0.578125 0
  0.671875   0.578125 0
  0.656250   0.578125 0
  0.656250   0.562500 0
  0.625000   0.578125 0
  0.640625   0.562500 0
  0.593750   0.578125 0
  0.562500   0.578125 0
  0.546875   0.578125 0
  0.531250   0.578125 0
  0.515625   0.578125 0
  0.859375   0.562500 0
  0.828125   0.562500 0
  0.781250   0.562500 0
  0.750000   0.562500 0
  0.718750   0.562500 0
  0.687500   0.562500 0
  0.609375   0.562500 0
  0.578125   0.562500 0
  0.562500   0.562500 0
  0.546875   0.562500 0
  0.531250   0.562500 0
  0.515625   0.562500 0
  1.000000   0.812500 0
  0.578125   0.031250 0
  0.875000   0.546875 0
  0.625000   0.546875 0
  0.218750   0.000000 0
  0.640625   0.781250 0
  0.828125   0.093750 0
  0.031250   0.531250 0
  0.296875   0.328125 0
  0.296875   0.312500 0
  0.281250   0.312500 0
  0.765625   0.312500 0
  0.031250   0.859375 0
  0.093750   0.265625 0
  0.109375   0.250000 0
  0.187500   0.671875 0
  0.421875   0.640625 0
  0.031250   0.062500 0
  0.140625   0.125000 0
  0.562500   0.906250 0
  0.125000   0.437500 0
  0.203125   0.937500 0
  0.125000   0.421875 0
  0.140625   0.406250 0
  0.093750   0.437500 0
  0.109375   0.421875 0
  0.093750   0.421875 0
  0.109375   0.406250 0
  0.328125   0.125000 0
  0.750000   0.906250 0
  0.328125   0.109375 0
  0.750000   0.890625 0
  0.312500   0.125000 0
  0.734375   0.906250 0
  0.281250   0.343750 0
  0.265625   0.359375 0
  0.500000   0.796875 0
  0.078125   0.015625 0
  0.062500   0.015625 0
  0.484375   0.796875 0
  0.484375   0.781250 0
  0.062500   0.000000 0
  0.015625   0.250000 0
  0.062500   0.046875 0
  0.484375   0.828125 0
  0.484375   0.812500 0
  0.062500   0.031250 0
  0.281250   0.671875 0
  0.062500   0.234375 0
  0.328125   0.765625 0
  0.312500   0.750000 0
  0.015625   0.671875 0
  0.781250   0.187500 0
  0.015625   0.265625 0
  0.453125   0.250000 0
  0.453125   0.234375 0
  0.031250   0.265625 0
  0.046875   0.250000 0
  0.093750   0.015625 0
  0.265625   0.656250 0
  0.734375   0.281250 0
  0.156250   0.015625 0
  0.062500   0.265625 0
  0.046875   0.281250 0
  0.031250   0.281250 0
  0.343750   0.781250 0
  0.328125   0.781250 0
  0.265625   0.687500 0
  0.265625   0.703125 0
  0.156250   0.109375 0
  0.578125   0.890625 0
  0.484375   0.984375 0
  0.062500   0.203125 0
  0.328125   0.718750 0
  0.343750   0.734375 0
  0.343750   0.750000 0
  0.453125   0.500000 0
  0.437500   0.500000 0
  0.234375   0.093750 0
  0.171875   0.375000 0
  0.437500   0.531250 0
  0.468750   0.546875 0
  0.453125   0.546875 0
  0.187500   0.015625 0
  0.187500   0.000000 0
  0.609375   0.781250 0
[...]
CELL_DATA 7648
SCALARS scalar_value float 1
LOOKUP_TABLE default
0.000463201
0.000505939
0.000600045
0.000449679
0.0550745
0.0577583
0.0630679
0.0570398
0.000481061
0.000573562
0.000616865
0.0247419
0.0266723
0.0210542
8.84931e-05
7.61177e-05
8.09793e-05
6.00377e-05
2.06365e-07
1.99651e-07
2.44548e-07
1.70165e-07
1.04218e-07
1.74048e-08
1.91975e-08
2.80408e-08
1.5143e-08
0.00164002
0.00177732
3.31825e-09
4.19659e-09
5.6398e-09
3.35977e-09
9.41078e-09
1.18831e-08
1.5503e-08
1.01024e-08
3.71223e-09
4.97872e-09
6.62404e-09
8.83328e-10
1.97213e-09
0.000733607
0.00102119
0.00104855
0.0114133
0.0132863
0.0155697
1.94067e-08
0.0168702
0.0514356
2.4193e-07
2.53214e-08
3.37605e-08
0.000576389
2.5465e-08
0.000760471
0.000445332
6.30911e-09
9.27025e-09
1.3605e-08
8.258e-08
6.03497e-08
0.000985198
0.000806049
0
0
1.86497e-08
2.31117e-05
0
8.79994e-06
0
6.96283e-05
0.000132216
0.00100078
0
0.00107187
0
0.000975449
0.000261004
0.000355639
0
0
0
0.0241518
1.29629e-08
5.51545e-06
4.97935e-06
0.00160177
0
6.20019e-10
0
3.28809e-07
4.60274e-07
0
1.19763e-08
0.00154296
1.9828e-08
0.00197682
0.00246672
0.00018694
7.6485e-08
0.000209614
0.000386899
1.70311e-07
7.50976e-06
6.72858e-05
0.0218517
0.0211307
3.20207e-10
9.40485e-09
6.02561e-05
6.00001e-05
0
5.52108e-07
0
7.24006e-07
3.9162e-07
1.40726e-08
0.0492318
0.0517513
0
0
1.07318e-06
0
0
0
0.00618186
0.00768343
0.00514996
0
0.00354355
0
0.0132165
1.83937e-05
0.0127755
0.00144257
4.31828e-08
8.48001e-09
0.0102433
0.00126155
0.0116028
0.0126774
3.65789e-09
0.0125012
0.0129389
0.0531144
2.68455e-07
0.0530024
0.00106182
0.00101013
3.47999e-08
4.57227e-08
5.87489e-08
0.0103385
0.00830376
0.0320775
5.47814e-09
0.0210418
3.27784e-08
0
2.24843e-07
2.62969e-07
5.01875e-05
0.012302
0.0148029
4.25218e-09
0.0107069
6.81542e-08
0.101588
0
0.0130434
0.0157481
0.0046768
5.07109e-05
9.16066e-07
0.0631254
0.00613323
1.81061e-05
0.00723719
0.00882492
2.52952e-05
0.0274482
0.00142068
0
4.10862e-07
0.0549382
0
0
0.00214043
0
0.00251797
0.00289825
0
1.48441e-09
0.00330851
0.00394471
0.00330804
0
0
0
0.0258975
5.13832e-07
0.0615523
0.058655
4.73019e-07
4.41443e-08
0.0144269
0.016457
0.0131854
3.3408e-09
5.27781e-09
7.85257e-09
4.74318e-09
0.00948512
8.40152e-07
0
0.120998
0
0.000470505
0.00103675
0.0106643
0.0127067
1.58983e-09
0.01034
3.52366e-10
0.000141816
0.00038555
0.00828051
0.00685535
0.0682238
0.0586151
0.00418915
8.12001e-06
0.0763733
0.0805896
0.0846183
0.081671
0.00295615
0
0.00253499
0.00823417
7.28109e-06
0.00109513
0.0012513
0.00846764
2.66954e-05
0.00751796
0.00894119
2.08911e-10
0.00716193
0.000595323
4.32587e-08
5.86451e-08
5.70356e-08
0.00110978
3.39032e-06
0.00217488
0.00257489
1.60353e-07
1.99485e-07
1.97807e-07
0.00529123
4.46865e-09
1.29701e-09
0.00747488
4.07292e-09
0.0133065
2.92687e-09
0.00519398
0.0310526
1.78825e-07
0
0.0440508
0.00753953
6.84003e-10
0.114899
0.00235174
4.51159e-06
5.59677e-06
7.18477e-10
0.000805284
0.00155214
0.0125453
1.10213e-05
0.00585397
0.0129656
8.64662e-10
4.02538e-10
0.00387234
6.77724e-10
0.0151566
0.00021678
0
5.75655e-06
5.83185e-06
0
7.24174e-06
0
0.000782553
3.82277e-07
1.6296e-05
0.0263509
0.00122935
1.10457e-07
8.98252e-08
8.04869e-08
6.43364e-07
0.00250542
1.96357e-06
1.41767e-06
0.00448308
0.019027
0
0.00333851
0.000166043
7.12389e-07
0.00300217
5.54461e-07
9.95054e-05
3.95706e-07
7.5076e-08
0.000599526
0.00182821
0.00353779
3.76574e-06
7.65787e-07
0.00184545
0.00258629
1.70961e-06
0.00229233
3.17614e-08
0.0125014
0.000371554
0.0305303
0.000339975
0.0296622
0.0393527
0.0347989
2.15661e-07
0.000928768
0.0513136
0.0468845
0
0.0383629
0.000166135
0.000234752
0.0191496
2.51166e-10
0
0
0
2.19553e-07
0.0049051
0
0.0040988
3.40458e-10
0.0509281
0.045733
0.0448661
5.1019e-06
4.05713e-06
4.29496e-06
3.30067e-05
0.00260016
0.00305947
0.0028679
0
0
0
0.00262353
2.57041e-05
3.18804e-10
0.00454112
1.91925e-10
0.0069535
0.00569479
0
0.00011886
8.98645e-08
4.20884e-06
0.00516354
7.01681e-06
0.000153947
0.00980768
5.33446e-05
0.0102083
1.56225e-05
1.39282e-09
0.0165822
0.0146086
5.67207e-05
0.0252324
0.0228594
0.0219879
2.48649e-08
2.49466e-08
0.0422671
0.00338285
7.38878e-05
6.25463e-09
0.023163
0.00241
7.86232e-05
0.00310657
4.61187e-05
7.07601e-10
0.00235747
0.0301734
1.84998e-08
0.0126075
0.00165447
0.00101957
0.00665144
1.74932e-05
0.000289802
0
0.000283314
1.8945e-10
1.75637e-05
0.00187259
2.88414e-05
0.0146723
7.44246e-08
1.7607e-07
1.55957e-07
0.0520042
1.59663e-07
0.00212117
8.64778e-09
0.00193653
5.3817e-07
6.57321e-09
0
7.27848e-09
4.21388e-09
1.5461e-09
0
0.0396681
0.00151212
1.28479e-06
0.00110675
1.18512e-07
1.2748e-07
0.00395418
1.7151e-07
0.0039744
0.00333275
0.00109344
0.00162433
0.0638013
6.7048e-07
6.15201e-09
4.83839e-07
0.00125989
9.21796e-09
1.18844e-08
1.01144e-08
0.000808927
0.00345995
0.0329022
3.76182e-07
0.000677911
0.000573481
0
4.67858e-09
3.84406e-09
0
0
1.34039e-10
0.00589917
0
5.83975e-06
0
0
5.63168e-06
8.59792e-08
0.000324418
0
0.00169909
0
3.13347e-06
0
0
0.00300975
0.0038935
0.00493558
0.00263045
8.53893e-07
1.36508e-06
0
8.83098e-07
0
4.51196e-06
0.000789856
0
5.08093e-07
0.0433641
0.000199118
5.73734e-09
4.28488e-09
0.00310894
5.81406e-05
5.91167e-09
4.38456e-09
0.0167157
1.38683e-08
1.08013e-08
1.02345e-08
8.10793e-09
0.0447149
0.00113196
1.21501e-08
0
0.00148488
2.43912e-09
0.0059995
1.04313e-08
2.36557e-09
0.00691441
8.32147e-09
0.0138231
5.47202e-09
9.17098e-09
0.0015102
2.7647e-05
0.10989
0.00854353
2.79199e-05
1.98418e-05
0.00681267
1.78297e-09
0.0250545
2.47155e-09
5.03948e-05
0.0552253
8.29995e-05
0.0457975
3.95893e-05
0.000122901
5.61516e-05
0.000143322
4.52114e-09
4.82998e-09
0.0310418
1.93133e-05
0.00452973
2.08246e-05
0.00131498
2.61298e-05
1.91572e-05
0.101825
3.03334e-05
2.59687e-05
0.000163883
0.000171566
0.000229703
0.0193938
1.52744e-08
7.40533e-09
0.0178082
1.4481e-09
4.93001e-10
2.46235e-09
0.000448855
1.82664e-05
1.93496e-07
0.00051534
0.000451251
0.000708543
9.56219e-08
0.0018305
2.19197e-05
0.00701604
2.40507e-09
1.30062e-05
0.038158
1.13543e-09
0.00413755
2.64181e-07
0.000105577
0.000102051
6.15029e-10
9.90183e-10
0.00187849
3.87149e-10
0.000207562
0.0112592
9.89256e-10
0.0245635
0.028592
0
5.58648e-09
5.88162e-09
0.0914175
1.26614e-08
3.32733e-05
0.00391754
3.47404e-09
0.00628784
5.0895e-09
3.29322e-09
2.17086e-09
2.13442e-09
0.00389277
0.00779478
2.61962e-09
0.0252615
2.27334e-05
0.0775823
0.0769198
0.0789572
0.00504793
0.00445697
0.00481954
1.66314e-07
0.013035
1.38644e-07
7.1982e-09
1.81309e-09
0.00473733
2.72257e-09
3.45172e-09
3.83997e-09
0.0121509
4.88022e-09
3.23468e-09
1.26749e-09
1.82982e-09
1.98837e-09
3.12882e-09
0.00263952
9.99591e-10
1.25058e-09
0.0906676
3.87143e-06
0.0983657
0.00396486
4.06086e-05
3.51197e-05
0.0226625
0.0169641
0.000116504
0.0695753
0.00437384
0.00942553
0.0169749
0
1.46186e-10
0
5.11414e-06
0.00644925
0.00743691
3.69783e-10
0
1.02275e-05
5.82042e-10
7.95537e-06
2.73469e-05
5.25231e-06
0.000764846
0.00132971
4.00533e-06
5.02328e-09
6.5384e-08
0.0354732
5.27488e-09
7.44659e-08
0
0
0
2.59671e-08
0.0579796
7.61568e-09
0.0526564
5.04018e-07
0.000211173
0.000227671
0.000298948
0.0179966
0.0190541
0.0194864
0.000753985
0
8.14365e-05
0.0123407
0.0240082
0.0114404
1.0063e-09
0.00476317
0.0131907
0.0147238
2.69423e-09
0.000125978
0.0137566
0.0174295
0.000194985
1.04645e-07
0.0174957
0.00504121
0.00409905
0.00326245
0.00199057
4.5469e-06
0.00130234
2.02004e-06
0.000943703
0.00118278
0.0376843
0.0421356
0.0707096
0.0754233
0.0786453
0.00265546
0.00178221
0.0561514
0.0611752
5.37698e-07
3.31118e-06
0.0600597
0.0659452
0.00110244
0.00119224
0.00100023
0.0447647
0.0493068
0.00638153
0.0540512
0.000572625
0.000673607
0.000824572
0.0343254
0.0382217
0.0424338
5.2043e-08
3.17571e-08
9.69236e-05
0.0287466
0.0278333
0.0322525
0.00255764
0.0308384
0.0372404
0.0355593
1.62414e-08
0.00028947
4.94438e-06
0.000379675
0.000651714
8.3996e-08
0.0204112
0.0236278
0.0269023
1.12359e-09
2.73156e-09
1.54029e-09
1.77583e-09
0.000315174
0.000226989
1.62578e-10
0.00394993
1.50763e-06
0
1.8935e-10
1.43839e-05
5.30615e-10
0.00630984
0.0382547
2.18083e-05
1.02219e-05
1.1143e-05
8.69964e-06
1.57038e-05
1.37123e-05
1.17124e-05
1.67909e-05
4.56097e-09
2.34549e-05
2.21852e-05
0.000698582
0.000911107
3.05017e-06
5.50879e-06
0
0.00423254
0
0.000463923
0.000579716
0.00834925
9.53819e-06
8.53091e-06
8.17333e-10
9.09796e-07
1.05263e-07
0.00340981
1.95389e-06
5.69731e-08
0.00128006
0
0.00199024
0
3.63208e-10
0.00157104
4.01844e-07
0.000485376
1.94938e-10
0.00503471
0.000768062
1.37495e-06
5.53677e-07
0.000569719
0
6.95127e-06
0.000789332
6.12495e-06
6.82134e-06
0.000754937
7.67767e-06
0.00893064
0.00956825
1.4193e-09
0.00111987
0.00293522
1.10631e-09
5.904e-10
0.0716378
0.00592453
0.00372353
0
0.00320639
0
3.59192e-06
0.00633465
0.00660385
0.00536551
6.73029e-06
6.06232e-06
0.0199354
0.00175549
0.00142533
2.19096e-08
0.00152899
0.00185743
0
6.0426e-07
0.062796
0.00134402
1.07983e-08
9.45325e-08
0.0195223
0.00502482
5.31195e-05
0.00930394
0.0102869
0.000107453
0.0102515
1.23318e-09
0.00148427
1.26404e-05
0.000130681
0.0123698
2.49514e-08
0.014035
0.00789627
3.9036e-09
0
0.0102538
4.47614e-08
0.00904711
1.36362e-07
3.40138e-07
0.000821817
3.06199e-07
0
0
0
3.43357e-07
1.52796e-07
0
0.00320747
0
0.00143351
1.06342e-07
1.21884e-07
0
6.78473e-07
0.00126131
0.00190298
1.47754e-06
0
0
0.00051596
0.000621771
0.000479394
0.0355595
0.00055552
0
0
0.000499673
0.000661741
5.27059e-06
0.000410584
0.00124811
1.07898e-10
0
5.84763e-08
0.00185053
6.35986e-08
3.86031e-08
0.000716092
7.13752e-07
3.00445e-07
0.0005121
0.0230511
0.0284898
0
3.76575e-08
0.0284874
4.80212e-08
4.68829e-08
8.39768e-08
0.0607728
1.13177e-06
5.01685e-08
2.19174e-08
1.68498e-06
0.0030018
7.39006e-08
0.00351349
0.00243268
0.0436898
0
0.00112677
0.00135755
0.0017312
0.00282989
4.6672e-06
0.00190882
2.38074e-06
1.12978e-06
0.00126785
0.000894335
9.48657e-08
0.000768374
4.29493e-07
0.00085364
0.0364729
0
6.39644e-05
0
4.43737e-05
2.91194e-08
5.57382e-08
0.000100282
1.22388e-06
8.08543e-05
0.00212183
0
0
7.79508e-09
0.0370044
0.0436917
0
0.00314436
0
0
0
0.000409724
2.31449e-07
0.00465506
0
0.0260187
1.18157e-07
0
0.000882599
0.0026959
0.103886
0.0342567
0.102127
0.108865
0.0101499
0.100361
0.00816313
5.47914e-07
0.0421691
0.00768144
2.32801e-07
0.037576
0.0378218
1.1423e-08
0.000622461
4.51107e-07
0
0.000597623
0.00580095
1.49335e-05
7.95669e-06
0.00455845
0.0944071
5.45741e-05
0
0.00358669
4.23206e-07
0.0345413
0.086751
0.00800255
0.0946079
0.0116679
4.16195e-05
0.000470079
0.0916299
0.00750779
0.00032323
0.00672631
1.46014e-05
2.4385e-05
0.00668761
1.7841e-07
0.0015605
1.00009e-05
0.000542199
4.08126e-07
0.0524196
0.000689985
2.3155e-06
9.7443e-07
0.000613174
0.00696588
0
0.0535508
4.84264e-10
1.09985e-10
4.25785e-10
0.000398929
1.61184e-10
0.000855685
4.8685e-06
0.000448425
0.064641
2.20409e-06
0.00429806
0.000892043
8.62535e-07
2.42362e-09
1.7396e-10
6.05911e-09
0.000233605
0
0
0
8.88866e-08
0.0636439
7.1454e-06
0.100737
0.0234829
0.0388532
1.17699e-06
1.46863e-07
0.0223271
0.0054818
1.78607e-07
0.0648741
0.0468165
1.30577e-06
6.65055e-08
2.08051e-10
7.67794e-08
9.88907e-07
0.00056953
0.0160608
0.0583366
0.0220565
4.62002e-08
4.30575e-08
5.21393e-08
5.33772e-08
0.00483593
0.0599957
0.00210768
0
0.00557819
0.0727514
0
3.75693e-05
0.0403699
1.32442e-08
0.0708428
0.00485337
0.00335793
0
1.8925e-08
1.8459e-05
0.00480842
0
0.00483307
1.41042e-09
0.0240831
7.62902e-06
0.000232182
0.00485665
0
1.03259e-09
2.50343e-08
5.73085e-05
0.00535385
1.02607e-05
1.33598e-09
0.00451847
0.00921325
8.78391e-09
1.96134e-06
0.0035198
0.00458537
4.53108e-06
1.74699e-10
8.22403e-05
0.00350021
0
3.25377e-05
0
3.40697e-08
4.06991e-08
0
2.1932e-07
0
0.000176184
0.00582939
0.00345308
0
0.00126194
7.64072e-09
5.55218e-05
0.00229515
6.33275e-07
2.68603e-08
0.0674101
1.97672e-05
2.45775e-09
0.0015122
2.29927e-10
0.0224629
2.65913e-05
0.000144775
0.0138811
7.55998e-08
0.00400047
7.78449e-08
0.0103031
8.71612e-05
1.14326e-08
1.9883e-09
0.024487
1.15231e-10
1.08144e-08
5.89453e-10
0.0190199
0
0.0262753
1.46123e-07
0.000339052
0.000590622
3.23916e-07
9.85264e-08
9.12037e-10
2.50266e-08
0.00137953
6.52871e-07
0.0393703
0.0254587
3.38757e-06
0.000319964
2.21675e-07
0.00046659
0.000636012
0.0180544
0.000161073
0.000386856
1.73739e-07
0.0116372
0.000786945
0.00011496
0.0193752
0.000163667
0
0.00114617
0.0222278
0
0.00023871
6.70118e-09
0.0394096
0.00332338
0
1.5208e-07
0.0201769
0.0232007
1.07396e-07
2.41815e-07
5.6398e-05
0.000241996
0
0.0146754
7.49201e-05
0.000302565
9.74196e-08
5.05776e-07
0
3.28243e-06
0.00313443
0
0.000109131
0
0.0403792
0.00328619
1.97065e-09
0.000226705
0
0.00326527
0.00316954
0.0181857
0.00239232
0.00613194
0
1.21417e-07
2.03043e-05
1.05808e-05
0
0
9.46526e-10
8.0297e-09
1.28371e-07
0.0238622
0
4.82643e-09
0.0163964
0.0124196
2.8282e-09
0.0265855
0.000283759
0.0209913
0.0203179
0.00352152
0.0233207
0.00357358
0.126264
0.000140732
0.0150912
7.35947e-09
0.0993272
9.36945e-07
3.05392e-09
0.00706775
2.99643e-06
4.64493e-06
0.0052927
4.39759e-08
0.00376174
1.69987e-06
2.87577e-06
1.99923e-10
1.87564e-08
0.0119681
0.0393155
6.46965e-07
0.0029739
0.00949015
0.00029066
0
0.0471229
0.000118969
0
0.00542219
0.00327494
0.0100302
0.00117373
0.00191613
0.00108886
7.75491e-09
0.00986521
1.92343e-08
8.10617e-09
3.48244e-05
0.000522304
0
0.124523
9.66562e-06
0.000327523
5.16404e-05
0
0.00490121
0.00095284
0
0
1.58472e-05
0
2.26738e-09
6.50836e-10
0.0146748
3.1672e-05
0.000686689
0
0
0.000412635
0
0
0.00537097
0
0.00289726
0
0
1.21452e-07
0.000317947
0.000528721
2.723e-07
0
0
0.00284517
0.00300619
9.80555e-06
0.00482674
0.00715949
1.47175e-05
0
1.09136e-09
0.000572845
0.000249945
0
0
0
0.000807499
6.53114e-06
5.81868e-07
2.94623e-06
0
1.38438e-09
0
1.5361e-10
0
0.000269871
3.71526e-06
0
5.24458e-06
0.00511644
1.22243e-05
1.1072e-05
0.0369731
0.0241069
1.05428e-05
0
7.09507e-05
0
0.0248075
0
2.45144e-06
0.00454279
5.88181e-06
7.42181e-09
0.0154839
3.23326e-08
0
0.0028132
8.27831e-06
0.0376844
0.000202904
0.0306706
0.0198492
1.27628e-05
1.34505e-07
3.50435e-07
0.0298172
0.0307254
0.000166644
5.4636e-08
0.00080794
5.19045e-07
0
0
1.39701e-08
2.27935e-05
0.00590012
0.00644019
4.28823e-05
0.00118384
1.87831e-07
0
0.0769646
0.0162704
0.0044673
0
0.0186536
2.38396e-05
0.103973
6.95339e-09
0.00515673
0.000592562
0.0597894
0.00252533
0
0.00204931
2.49256e-07
0.0567117
0.0027576
0.0125041
0.00181717
6.17815e-09
3.49576e-09
0
1.21921e-06
0.00171559
3.1985e-05
3.60144e-06
2.40259e-09
0
0.00452288
3.74453e-08
0.0137804
0.0340882
0.0304839
0.0310229
0.0512816
2.78048e-06
0
0.0962276
0.04818
0
3.23759e-07
0.00199982
0.00304151
7.19382e-07
6.08038e-10
0.0559022
3.41646e-05
0.00435813
6.59185e-09
0.0263039
1.10571e-09
1.62097e-09
2.89465e-06
0.0572873
0
0.0515432
0.00336957
1.20955e-05
0.0775904
0.000958656
0.00229622
0
0.0740404
0.0217865
0.019348
0.00549695
0.036025
0.00504724
0.000295729
0.0535846
0.0330454
3.43737e-10
0.0870905
5.09768e-09
1.47752e-05
0.0546523
0.0345119
2.02528e-07
0.0622023
0.096114
9.86199e-06
0.00552607
0.00566937
1.36436e-05
0.0637086
0.0117423
8.65682e-05
0.000508254
0.0171622
0.106154
0
0.0210245
1.12028e-08
2.48988e-06
6.27917e-10
0.00300704
1.99893e-06
0.0166802
1.82376e-08
0.00860966
0
0.00163079
0.0199227
0.000333153
0.000203823
0.0175649
0.000191371
0.0105164
0.00463106
0
0.0600138
0.00457176
0.00525888
1.63536e-05
0.00319813
0.00516333
2.93169e-10
0.0916074
0.00259329
5.91495e-07
2.23163e-05
0.00891574
0
0.00314271
2.7739e-07
0.00478784
0.0249352
1.77731e-05
0.000275021
2.99462e-07
7.74555e-07
0.00484101
0.00595586
0.125837
6.33619e-09
0.00840395
0.00551967
0.0176969
0.105496
0.000141613
0.0798481
5.11402e-07
1.81719e-07
0.00374193
4.29322e-06
0.00290538
8.46735e-07
0.0549442
5.61987e-10
2.39912e-05
0.0629848
0.00824417
0
0.00299474
0.00159805
0.01244
0.0227022
0
0.000409744
3.13859e-06
0.007949
3.5999e-09
0.00775042
1.71623e-05
2.9856e-08
8.15829e-05
0.000174393
6.59896e-08
0.0944099
3.08763e-08
1.82648e-05
0.00739662
2.62439e-09
0.00637017
0.0992524
0.00150095
3.16364e-09
2.23612e-05
0.109808
4.06569e-08
0.0203924
3.40648e-08
4.3528e-08
0.00750525
0.0256085
2.44265e-05
0.00250191
0
0
9.38803e-07
7.7073e-05
0.00352795
0
0.00212851
0.00310694
2.23751e-06
2.42696e-10
1.50233e-07
2.26002e-06
3.18208e-07
0.033599
8.749e-08
0.103784
3.28344e-08
2.63407e-08
0
1.34589e-07
0
0
0.000623206
0.0260191
5.6575e-07
0
0.0550738
2.77528e-06
2.14548e-07
2.5108e-06
0
0.00899797
0.0394354
7.59191e-06
0.00320626
0.0712902
7.13867e-07
1.13952e-06
0
0.000644015
5.14303e-08
2.33523e-08
0.000221069
0.0246366
8.39162e-07
0.00414584
3.88105e-07
0.00189459
0.0116227
0.0815849
0
0.00110919
0.100398
0.00837034
0.00562712
1.13212e-05
0.11013
0.0465732
0.00489105
0.000530975
0.0460947
1.06683e-06
2.16152e-06
0.000422859
4.43043e-05
0.00458049
3.64641e-09
0.00010559
0.00648769
0.000201147
0.00857757
5.66844e-09
2.60198e-09
0.000249724
0.014946
0.000111723
4.08865e-05
0.0109677
0.00395676
0.116793
0.0246789
2.05872e-05
0.00372723
0.0778818
0.0744081
0.00176751
0
0.0103272
1.25825e-05
0.00617748
0
0.00274192
2.14481e-07
0.0680534
1.02678e-06
0.00245403
5.15529e-07
0
0.00162336
1.02705e-07
0.0013838
0.0698603
8.49452e-08
1.94153e-05
3.08129e-07
0.0278075
2.98444e-06
1.84153e-09
3.73565e-08
0.00496712
0.0246806
0.0275041
0.0298308
0.00293658
6.69577e-07
0.0501421
0.020543
0.113322
0.0224266
0.014094
4.35617e-09
3.73062e-05
0.0043162
0.0156292
0.000272456
0.0118892
0.0243911
0.0998617
0
3.72569e-09
0.00831022
2.05641e-05
1.28014e-05
0.00587474
0.00926744
1.21603e-07
0.000380268
0.103651
0.10769
0.0163416
0.0190048
9.38633e-09
0.111096
3.703e-07
0.0200373
1.05231e-08
0.109658
1.8932e-09
0.00670086
1.01842e-09
0.0655668
0.00191625
1.33218e-05
9.96251e-07
0.00107389
0.00123731
9.44534e-06
0.000883367
9.32477e-10
0.0203698
6.71193e-06
0
4.59009e-10
0.0583861
0.000522235
1.85133e-10
0.0136234
2.58646e-08
0
0
0.00495292
1.63394e-09
0
0.00059102
0.00115429
1.55543e-07
0.000704343
4.4552e-07
0
3.45378e-06
1.84859e-07
2.87129e-07
0.00134635
5.93571e-08
0.0194402
7.08095e-08
0
0
0.00199534
1.35172e-05
7.60986e-08
1.94554e-08
0.0128298
0
0.00358609
0
0.00829677
0.0038926
2.13312e-08
0.00735992
0.000246116
0
0
0.000828741
0.113674
1.835e-08
0.00439752
3.76694e-06
0
0.000663903
0.0229536
0.000682226
0.0254957
0.00072699
0.00828302
3.80578e-05
0.0217355
0.000575845
1.39874e-09
1.52961e-08
3.50401e-07
0.0499697
1.89618e-06
2.90826e-07
0.0440361
1.21139e-08
0.0414764
0.0117889
0.0757123
0.000166623
0
8.92012e-10
0.00406582
0.00349884
0
7.77323e-06
9.58959e-06
0.0267097
0.0307997
0.000847985
0.00183817
0.00363506
8.02301e-06
7.004e-05
0
0
0.0267992
0
0.00196881
0.00355922
3.40788e-08
5.1931e-10
0.00189363
0.0649454
0.0143023
1.95403e-08
3.17715e-08
2.52717e-08
2.91508e-08
0.000138432
1.69003e-08
0.000134383
2.11718e-05
0.0850743
1.39426e-09
0.020074
2.15482e-08
0.000192144
2.77977e-08
2.43139e-09
3.17101e-08
0.107339
0.0277038
3.524e-08
0.000123626
9.97659e-08
9.30465e-05
0.0272084
1.49241e-08
1.34786e-07
0.000807638
0.0010232
6.83119e-06
0.000628916
1.40603e-08
0.00944906
0.00029907
0.00202828
2.85786e-07
1.3048e-07
0.00119934
0.0272302
3.14102e-07
0
0
9.07854e-08
1.53419e-06
2.37225e-07
0.00154304
0.025617
0.0227498
2.04042e-10
0.00271687
0.000195325
0.000171641
0.0548454
0
0.000560369
0
0.00218752
0.0215217
9.61882e-08
0
1.9006e-08
1.2936e-09
0.0235496
0.0217112
0.000304655
0
0
0.000611928
3.72789e-07
4.40337e-07
0.0336567
0.00352778
0.000953611
0
6.54186e-08
0.000398423
2.72949e-05
0.0921726
0.0398969
0.0958015
0
2.77973e-10
3.73834e-10
1.05947e-10
2.43795e-08
1.45097e-10
0.000137713
0.000140085
0.00459112
0.0828641
0.0045901
0.00269888
1.10877e-06
0
1.92136e-06
1.85609e-05
4.17075e-07
9.05246e-08
0.00774771
6.25621e-09
0.000220586
0.000329936
0.00967838
1.17762e-05
0.000275526
0.0319794
0
0
8.75018e-09
0.0197999
0.0218473
5.11599e-08
3.48131e-09
0.0188468
1.43502e-09
0.0174032
0.043038
0.0205127
0.020767
0
1.00881e-08
0.00668488
0.000891018
1.29192e-05
0.00277037
4.3952e-10
0
0.00332174
3.25275e-06
4.67739e-06
3.40911e-06
0.0227592
0
0.0224816
0.0272176
6.33221e-07
0
0
3.43685e-05
9.88157e-09
0
0.039743