# vtk DataFile Version 2.0
Unstructured Grid by M++
ASCII
DATASET UNSTRUCTURED_GRID
POINTS 4072 float
  0.609375   0.843750 0
  0.562500   0.843750 0
  0.531250   0.843750 0
  0.875000   0.828125 0
  0.984375   0.828125 0
  0.953125   0.828125 0
  0.937500   0.828125 0
  0.843750   0.828125 0
  0.812500   0.828125 0
  0.781250   0.828125 0
  0.765625   0.828125 0
  0.734375   0.828125 0
  0.703125   0.828125 0
  0.671875   0.828125 0
  0.640625   0.828125 0
  0.609375   0.828125 0
  0.593750   0.828125 0
  0.562500   0.828125 0
  0.546875   0.828125 0
  0.531250   0.828125 0
  0.515625   0.828125 0
  0.968750   0.812500 0
  0.937500   0.812500 0
  0.921875   0.812500 0
  0.890625   0.812500 0
  0.859375   0.812500 0
  0.828125   0.812500 0
  0.796875   0.812500 0
  0.765625   0.812500 0
  0.750000   0.812500 0
  0.718750   0.812500 0
  0.687500   0.812500 0
  0.656250   0.812500 0
  0.625000   0.812500 0
  0.593750   0.812500 0
  0.578125   0.812500 0
  0.546875   0.812500 0
  0.531250   0.812500 0
  0.515625   0.812500 0
  0.984375   0.796875 0
  0.562500   0.015625 0
  0.953125   0.796875 0
  0.921875   0.796875 0
  0.906250   0.796875 0
  0.875000   0.796875 0
  0.843750   0.796875 0
  0.812500   0.796875 0
  0.781250   0.796875 0
  0.750000   0.796875 0
  0.734375   0.796875 0
  0.703125   0.796875 0
  0.671875   0.796875 0
  0.640625   0.796875 0
  0.609375   0.796875 0
  0.578125   0.796875 0
  0.562500   0.796875 0
  0.531250   0.796875 0
  0.515625   0.796875 0
  0.968750   0.781250 0
  0.546875   0.000000 0
  0.937500   0.781250 0
  0.906250   0.781250 0
  0.890625   0.781250 0
  0.859375   0.781250 0
  0.828125   0.781250 0
  0.796875   0.781250 0
  0.765625   0.781250 0
  0.734375   0.781250 0
  0.718750   0.781250 0
  0.687500   0.781250 0
  0.656250   0.781250 0
  0.625000   0.781250 0
  0.593750   0.781250 0
  0.562500   0.781250 0
  0.546875   0.781250 0
  0.515625   0.781250 0
  0.984375   0.765625 0
  0.953125   0.765625 0
  0.921875   0.765625 0
  0.890625   0.765625 0
  0.875000   0.765625 0
  0.843750   0.765625 0
  0.812500   0.765625 0
  0.781250   0.765625 0
  0.750000   0.765625 0
  0.718750   0.765625 0
  0.703125   0.765625 0
  0.671875   0.765625 0
  0.640625   0.765625 0
  0.609375   0.765625 0
  0.578125   0.765625 0
  0.593750   0.750000 0
  0.562500   0.765625 0
  0.546875   0.765625 0
  0.531250   0.765625 0
  0.562500   0.750000 0
  0.968750   0.750000 0
  0.937500   0.750000 0
  0.906250   0.750000 0
  0.875000   0.750000 0
  0.859375   0.750000 0
  0.828125   0.750000 0
  0.796875   0.750000 0
  0.765625   0.750000 0
  0.734375   0.750000 0
  0.703125   0.750000 0
  0.687500   0.750000 0
  0.671875   0.750000 0
  0.656250   0.750000 0
  0.625000   0.750000 0
  0.546875   0.750000 0
  0.531250   0.750000 0
  0.515625   0.750000 0
  0.562500   0.734375 0
  0.984375   0.734375 0
  0.953125   0.734375 0
  0.921875   0.734375 0
  0.890625   0.734375 0
  0.859375   0.734375 0
  0.843750   0.734375 0
  0.812500   0.734375 0
  0.781250   0.734375 0
  0.750000   0.734375 0
  0.718750   0.734375 0
  0.687500   0.734375 0
  0.671875   0.734375 0
  0.656250   0.734375 0
  0.640625   0.734375 0
  0.546875   0.734375 0
  0.531250   0.734375 0
  0.515625   0.734375 0
  0.562500   0.718750 0
  0.968750   0.718750 0
  0.937500   0.718750 0
  0.906250   0.718750 0
  0.875000   0.718750 0
  0.843750   0.718750 0
  0.796875   0.718750 0
  0.765625   0.718750 0
  0.734375   0.718750 0
  0.703125   0.718750 0
  0.687500   0.718750 0
  0.671875   0.718750 0
  0.656250   0.718750 0
  0.625000   0.718750 0
  0.546875   0.718750 0
  0.531250   0.718750 0
  0.515625   0.718750 0
  0.562500   0.703125 0
  0.953125   0.703125 0
  0.921875   0.703125 0
  0.890625   0.703125 0
  0.859375   0.703125 0
  0.828125   0.703125 0
  0.781250   0.703125 0
  0.750000   0.703125 0
  0.718750   0.703125 0
  0.687500   0.703125 0
  0.656250   0.703125 0
  0.546875   0.703125 0
  0.531250   0.703125 0
  0.515625   0.703125 0
  0.984375   0.687500 0
  0.937500   0.687500 0
  0.921875   0.687500 0
  0.906250   0.687500 0
  0.875000   0.687500 0
  0.843750   0.687500 0
  0.812500   0.687500 0
  0.765625   0.687500 0
  0.734375   0.687500 0
  0.703125   0.687500 0
  0.671875   0.687500 0
  0.640625   0.687500 0
  0.593750   0.687500 0
  0.562500   0.687500 0
  0.546875   0.687500 0
  0.531250   0.687500 0
  0.515625   0.687500 0
  0.968750   0.671875 0
  0.937500   0.671875 0
  0.921875   0.671875 0
  0.906250   0.671875 0
  0.890625   0.671875 0
  0.859375   0.671875 0
  0.828125   0.671875 0
  0.796875   0.671875 0
  0.765625   0.671875 0
  0.750000   0.671875 0
  0.718750   0.671875 0
  0.687500   0.671875 0
  0.656250   0.671875 0
  0.625000   0.671875 0
  0.593750   0.671875 0
  0.578125   0.671875 0
  0.546875   0.671875 0
  0.531250   0.671875 0
  0.515625   0.671875 0
  0.984375   0.656250 0
  0.953125   0.656250 0
  0.937500   0.656250 0
  0.921875   0.656250 0
  0.906250   0.656250 0
  0.875000   0.656250 0
  0.843750   0.656250 0
  0.812500   0.656250 0
  0.781250   0.656250 0
  0.750000   0.656250 0
  0.734375   0.656250 0
  0.703125   0.656250 0
  0.671875   0.656250 0
  0.640625   0.656250 0
  0.609375   0.656250 0
  0.578125   0.656250 0
  0.562500   0.656250 0
  0.531250   0.656250 0
  0.515625   0.656250 0
  0.968750   0.640625 0
  0.937500   0.640625 0
  0.906250   0.640625 0
  0.890625   0.640625 0
  0.859375   0.640625 0
  0.828125   0.640625 0
  0.796875   0.640625 0
  0.765625   0.640625 0
  0.734375   0.640625 0
  0.718750   0.640625 0
  0.687500   0.640625 0
  0.656250   0.640625 0
  0.625000   0.640625 0
  0.593750   0.640625 0
  0.562500   0.640625 0
  0.546875   0.640625 0
  0.515625   0.640625 0
  0.984375   0.625000 0
  0.953125   0.625000 0
  0.921875   0.625000 0
  0.890625   0.625000 0
  0.875000   0.625000 0
  0.843750   0.625000 0
  0.812500   0.625000 0
  0.781250   0.625000 0
  0.750000   0.625000 0
  0.734375   0.625000 0
  0.718750   0.625000 0
  0.703125   0.625000 0
  0.671875   0.625000 0
  0.640625   0.625000 0
  0.609375   0.625000 0
  0.578125   0.625000 0
  0.562500   0.625000 0
  0.546875   0.625000 0
  0.531250   0.625000 0
  0.968750   0.609375 0
  0.937500   0.609375 0
  0.906250   0.609375 0
  0.875000   0.609375 0
  0.859375   0.609375 0
  0.828125   0.609375 0
  0.796875   0.609375 0
  0.765625   0.609375 0
  0.750000   0.609375 0
  0.734375   0.609375 0
  0.718750   0.609375 0
  0.703125   0.609375 0
  0.687500   0.609375 0
  0.656250   0.609375 0
  0.625000   0.609375 0
  0.593750   0.609375 0
  0.562500   0.609375 0
  0.546875   0.609375 0
  0.531250   0.609375 0
  0.515625   0.609375 0
  0.984375   0.593750 0
  0.953125   0.593750 0
  0.921875   0.593750 0
  0.890625   0.593750 0
  0.859375   0.593750 0
  0.843750   0.593750 0
  0.812500   0.593750 0
  0.781250   0.593750 0
  0.750000   0.593750 0
  0.734375   0.593750 0
  0.718750   0.593750 0
  0.687500   0.593750 0
  0.671875   0.593750 0
  0.640625   0.593750 0
  0.609375   0.593750 0
  0.578125   0.593750 0
  0.562500   0.593750 0
  0.546875   0.593750 0
  0.531250   0.593750 0
  0.515625   0.593750 0
  0.968750   0.578125 0
  0.937500   0.578125 0
  0.906250   0.578125 0
  0.875000   0.578125 0
  0.890625   0.562500 0
  0.843750   0.578125 0
  0.828125   0.578125 0
  0.796875   0.578125 0
  0.765625   0.578125 0
  0.734375   0.578125 0
  0.703125   0.578125 0
  0.671875   0.578125 0
  0.656250   0.578125 0
  0.656250   0.562500 0
  0.625000   0.578125 0
  0.640625   0.562500 0
  0.593750   0.578125 0
  0.562500   0.578125 0
  0.546875   0.578125 0
  0.531250   0.578125 0
  0.515625   0.578125 0
  0.859375   0.562500 0
  0.828125   0.562500 0
  0.781250   0.562500 0
  0.750000   0.562500 0
  0.718750   0.562500 0
  0.687500   0.562500 0
  0.609375   0.562500 0
  0.578125   0.562500 0
  0.562500   0.562500 0
  0.546875   0.562500 0
  0.531250   0.562500 0
  0.515625   0.562500 0
  1.000000   0.812500 0
  0.578125   0.031250 0
  0.875000   0.546875 0
  0.625000   0.546875 0
  0.218750   0.000000 0
  0.640625   0.781250 0
  0.828125   0.093750 0
  0.031250   0.531250 0
  0.296875   0.328125 0
  0.296875   0.312500 0
  0.281250   0.312500 0
  0.765625   0.312500 0
  0.031250   0.859375 0
  0.093750   0.265625 0
  0.109375   0.250000 0
  0.187500   0.671875 0
  0.421875   0.640625 0
  0.031250   0.062500 0
  0.140625   0.125000 0
  0.562500   0.906250 0
  0.125000   0.437500 0
  0.203125   0.937500 0
  0.125000   0.421875 0
  0.140625   0.406250 0
  0.093750   0.437500 0
  0.109375   0.421875 0
  0.093750   0.421875 0
  0.109375   0.406250 0
  0.328125   0.125000 0
  0.750000   0.906250 0
  0.328125   0.109375 0
  0.750000   0.890625 0
  0.312500   0.125000 0
  0.734375   0.906250 0
  0.281250   0.343750 0
  0.265625   0.359375 0
  0.500000   0.796875 0
  0.078125   0.015625 0
  0.062500   0.015625 0
  0.484375   0.796875 0
  0.484375   0.781250 0
  0.062500   0.000000 0
  0.015625   0.250000 0
  0.062500   0.046875 0
  0.484375   0.828125 0
  0.484375   0.812500 0
  0.062500   0.031250 0
  0.281250   0.671875 0
  0.062500   0.234375 0
  0.328125   0.765625 0
  0.312500   0.750000 0
  0.015625   0.671875 0
  0.781250   0.187500 0
  0.015625   0.265625 0
  0.453125   0.250000 0
  0.453125   0.234375 0
  0.031250   0.265625 0
  0.046875   0.250000 0
  0.093750   0.015625 0
  0.265625   0.656250 0
  0.734375   0.281250 0
  0.156250   0.015625 0
  0.062500   0.265625 0
  0.046875   0.281250 0
  0.031250   0.281250 0
  0.343750   0.781250 0
  0.328125   0.781250 0
  0.265625   0.687500 0
  0.265625   0.703125 0
  0.156250   0.109375 0
  0.578125   0.890625 0
  0.484375   0.984375 0
  0.062500   0.203125 0
  0.328125   0.718750 0
  0.343750   0.734375 0
  0.343750   0.750000 0
  0.453125   0.500000 0
  0.437500   0.500000 0
  0.234375   0.093750 0
  0.171875   0.375000 0
  0.437500   0.531250 0
  0.468750   0.546875 0
  0.453125   0.546875 0
  0.187500   0.015625 0
  0.187500   0.000000 0
  0.609375   0.781250 0
[...]
CELL_DATA 7648
SCALARS scalar_value float 1
LOOKUP_TABLE default
0.0169756
0.0181157
0.0207257
0.0164829
0.0317137
0.0301009
0.0324982
0.027662
0.017299
0.0198873
0.0211305
0.0157728
0.0142771
0.0129078
0.00481619
0.00428078
0.0045187
0.00353246
2.46422e-05
2.36481e-05
2.80551e-05
2.04128e-05
5.04574e-06
2.29613e-06
2.51121e-06
3.63606e-06
1.98507e-06
0.0324661
0.0336329
2.17759e-07
2.70069e-07
3.65548e-07
2.07359e-07
6.01378e-07
7.41825e-07
9.74601e-07
6.01629e-07
2.14679e-07
2.81532e-07
3.75674e-07
1.20239e-07
2.65505e-07
0.0110354
0.0132958
0.0126974
0.0658815
0.0703155
0.0783196
1.66131e-06
0.0937585
0.10685
1.58843e-05
2.37887e-06
2.96605e-06
0.00281672
3.28314e-06
0.00324059
0.00220728
8.04218e-07
1.17537e-06
1.71963e-06
9.01407e-06
4.33488e-06
0.00316685
0.00284614
0
0
1.87179e-06
0.00096557
9.33882e-10
0.00068246
0
0.00234948
0.00383787
0.0042943
0
0.0269591
0
0.00363569
0.00663902
0.0083705
0
8.54399e-10
0
0.0787498
7.52297e-07
0.000450108
0.000409452
0.0032326
0
6.50108e-08
0
3.43402e-05
4.545e-05
0
1.41761e-06
0.0104842
2.53655e-06
0.014325
0.0160719
0.00497
5.51304e-06
0.00533318
0.00872264
1.24223e-05
0.000343826
0.0032715
0.0735756
0.0608384
4.2691e-08
1.21533e-06
0.000689733
0.00066972
0
5.55711e-05
0
6.95776e-05
4.15948e-05
1.29362e-06
0.0265154
0.0252466
0
0
6.53423e-05
0
0
0
0.0741806
0.0829983
0.0640702
3.3769e-10
0.0300478
0
0.0148765
0.00132812
0.0120731
0.040102
3.80306e-06
6.11126e-07
0.0568531
0.00478122
0.0599929
0.0639401
2.63501e-07
0.0613449
0.0743654
0.0219069
1.62786e-05
0.0950356
0.00290044
0.0026699
4.24101e-06
5.48634e-06
7.01272e-06
0.00168388
0.0015431
0.0360905
3.95236e-07
0.114376
3.08075e-06
0
2.79809e-05
3.24378e-05
0.00193234
0.0793611
0.0838206
2.89379e-07
0.0701085
7.22183e-06
0.0499703
0
0.130501
0.0648818
0.00149386
0.000608851
3.71889e-05
0.0481219
0.0540885
0.000902291
0.0612259
0.0657082
0.00115637
0.0807593
0.0307109
0
3.06575e-05
0.134307
0
0
0.0354977
0
0.0363132
0.00890634
3.59117e-10
1.94601e-07
0.0094426
0.0113578
0.00885893
0
0
0
0.0562668
4.22104e-05
0.129555
0.12249
3.30633e-05
4.39952e-06
0.0122735
0.011694
0.0108229
4.31842e-07
6.77706e-07
1.00413e-06
6.08611e-07
0.114865
7.61048e-05
0
0.0523261
0
0.00465996
0.00964988
0.109295
0.117143
1.62788e-07
0.101682
3.34732e-08
0.00170428
0.00350918
0.0813888
0.0716969
0.0822803
0.0813782
0.051677
0.000512822
0.104959
0.101623
0.103783
0.09774
0.0363338
0
0.0317276
0.0013306
0.000579907
0.00271695
0.00283776
0.103239
0.00165473
0.093708
0.101367
2.24913e-08
0.0856245
0.00254757
4.19053e-06
5.5167e-06
5.20035e-06
0.0277037
0.000247786
0.00459103
0.00464215
1.89582e-05
2.28697e-05
2.21119e-05
0.0341392
5.4369e-07
1.52629e-07
0.0998992
3.03709e-07
0.0933843
2.08567e-07
0.0835256
0.161711
1.64944e-05
0
0.0238157
0.00190022
8.15017e-08
0.0665831
0.00682114
0.000376174
0.000462299
9.40534e-08
0.0264884
0.00518663
0.00232139
0.000819155
0.0168564
0.00223385
9.91744e-08
2.32817e-08
0.0254337
4.0337e-08
0.0100533
0.00161187
2.88507e-09
0.000406987
0.000409908
3.85369e-09
0.00050159
0
0.00318697
2.4082e-05
0.00119372
0.00657327
0.00341971
1.34316e-05
1.09771e-05
9.71198e-06
5.6572e-05
0.0087136
0.000180084
0.000138692
0.0305276
0.0139301
8.66022e-10
0.00459317
0.00438164
6.78934e-05
0.00445864
5.46321e-05
0.00303987
4.13331e-05
9.27066e-06
0.0209339
0.0221888
0.0326354
0.000202996
4.54864e-05
0.0205881
0.0262609
9.77146e-05
0.0179487
4.08792e-06
0.0749137
0.014446
0.00952817
0.0135628
0.00861912
0.0410069
0.0360236
1.35578e-05
0.0131055
0.051981
0.0446954
0
0.0193724
0.00781451
0.0102628
0.00399316
1.4694e-08
0
0
0
2.73341e-05
0.0225874
1.24224e-08
0.0226266
4.61447e-08
0.0230929
0.0208067
0.0189643
0.000291036
0.00024421
0.000267929
0.00218924
0.0243339
0.00534011
0.0199399
4.90729e-10
9.27873e-09
6.3234e-09
0.028835
0.00177325
3.81692e-08
0.0773267
2.23344e-08
0.0941441
0.00190538
5.26084e-09
0.000985397
1.13512e-05
0.000305066
0.0252997
0.00026408
0.00124829
0.0889737
0.00224549
0.0893917
0.00114674
1.76414e-07
0.0255724
0.0193593
0.00337974
0.0429865
0.0318321
0.0510185
1.31573e-06
1.99588e-06
0.0402965
0.00359443
0.0042144
3.38432e-07
0.0667664
0.0205156
0.000783174
0.0230276
0.00288681
8.73909e-08
0.0553981
0.0631098
9.57495e-07
0.00324893
0.00616672
0.00418211
0.00295345
0.0011911
0.00162019
0
0.00154992
2.45324e-08
0.00124491
0.0479039
0.00193876
0.00727583
7.59262e-06
2.20087e-05
1.94844e-05
0.0200262
1.99591e-05
0.00867929
1.13673e-06
0.0196208
3.09888e-05
8.66098e-07
8.00289e-09
9.51532e-07
5.60561e-07
2.07025e-07
0
0.0651634
0.0239769
8.60693e-05
0.020142
1.22037e-05
1.59587e-05
0.0195809
2.14828e-05
0.0187981
0.0154139
0.0157473
0.0196087
0.0848272
3.69804e-05
8.30975e-07
3.02514e-05
0.0167673
1.23185e-06
1.5838e-06
1.33871e-06
0.00430334
0.00543876
0.0632215
2.72202e-05
0.0137089
0.00977899
0
6.33521e-07
5.16253e-07
4.41257e-09
0
1.83366e-08
0.0639683
3.10027e-09
0.000468867
0
4.52535e-09
0.000446137
5.76351e-06
0.00689914
0
0.0276927
0
0.000268981
2.7983e-10
1.42375e-10
0.0468316
0.0549737
0.0632147
0.0227242
4.6575e-05
7.00256e-05
4.33355e-10
9.03389e-05
6.06389e-10
0.00036959
0.00368096
1.17527e-10
2.4545e-05
0.021786
0.0049594
6.45443e-07
4.83495e-07
0.0121404
0.00239116
3.58675e-07
2.64418e-07
0.0738471
1.54557e-06
1.21074e-06
1.12006e-06
9.27919e-07
0.0337896
0.00735378
1.55257e-06
5.57218e-09
0.00866555
2.9086e-07
0.0853306
1.20678e-06
2.73244e-07
0.085577
9.67479e-07
0.0700496
4.42423e-07
7.43368e-07
0.00362273
0.00120194
0.0699562
0.0548593
0.00119509
0.000863748
0.0466417
2.21431e-07
0.00807905
3.06983e-07
0.000750609
0.11482
0.000974047
0.110057
0.000593468
0.00129895
0.000776108
0.0012824
3.58011e-07
3.66041e-07
0.0507311
0.0012788
0.00216284
0.00095521
0.00308744
0.00112086
0.000860203
0.0807422
0.00142688
0.00125752
0.0058471
0.00574289
0.00769207
0.119762
1.2938e-06
5.9019e-07
0.109454
2.00705e-07
6.8268e-08
3.34058e-07
0.008539
0.00075512
1.31392e-05
0.00979402
0.00912787
0.0121566
9.61682e-06
0.00377317
0.000971867
0.0504305
3.08072e-07
0.000976345
0.148818
1.55797e-07
0.00246494
2.8228e-05
0.00403692
0.00396552
8.02917e-08
1.28229e-07
0.00366704
5.07679e-08
0.00933571
0.0837849
1.04768e-07
0.142286
0.145915
5.77801e-10
3.83464e-07
7.01766e-07
0.10602
1.63136e-06
0.00210441
0.0716805
4.19712e-07
0.090237
6.02932e-07
3.95591e-07
1.50537e-07
2.59994e-07
0.0741279
0.00163497
3.17213e-07
0.00596919
0.00159571
0.0397665
0.0370983
0.0352407
0.0258237
0.0235539
0.0258742
2.08747e-05
0.0200773
1.73994e-05
7.64517e-07
1.01846e-07
0.0264521
1.56885e-07
1.90463e-07
4.50817e-07
0.00199503
5.7089e-07
3.72791e-07
7.89467e-08
1.14716e-07
2.58023e-07
4.03242e-07
0.00542681
5.98216e-08
7.12555e-08
0.0856801
0.000316498
0.0814829
0.0508488
0.00256742
0.00228197
0.0170923
0.0146998
0.00482215
0.146664
0.0197111
0.0915114
0.0138644
1.18907e-08
1.9446e-08
0
0.000182024
0.0634181
0.071004
4.02037e-08
0
0.00077881
5.62095e-08
0.000610638
0.00184727
0.000393508
0.0118624
0.0374725
0.000309623
5.08534e-07
3.84294e-06
0.0855577
5.59791e-07
4.60418e-06
0
0
0
3.31422e-06
0.0420656
9.79648e-07
0.0359855
1.97116e-05
0.00934488
0.00982395
0.0120344
0.0672653
0.071099
0.0667657
0.0228654
0
0.00385927
0.120897
0.134163
0.0996062
8.41336e-08
0.000783071
0.106911
0.116868
2.49743e-07
0.00473408
0.107128
0.123559
0.00708762
1.32816e-05
0.0352447
0.0322293
0.0280798
0.00330371
0.0367094
0.000318568
0.0284831
0.000149009
0.0199266
0.0230962
0.0957005
0.101585
0.129625
0.126565
0.127649
0.0400076
0.0309213
0.105855
0.110144
3.4949e-05
0.000203098
0.113481
0.108142
0.025135
0.025987
0.0224898
0.112809
0.118511
0.0867462
0.117951
0.0159427
0.0185247
0.021223
0.115057
0.122333
0.123638
6.52953e-06
3.99056e-06
0.00517569
0.120885
0.122373
0.124141
0.00393336
0.130749
0.140802
0.131823
2.03683e-06
0.00927121
0.000407812
0.0112555
0.0223418
6.31377e-06
0.0920792
0.100717
0.104344
1.46356e-07
3.51684e-07
1.98702e-07
2.29635e-07
0.00198298
0.00154393
9.49894e-09
0.00602952
7.03309e-05
1.32244e-08
2.59293e-08
0.000290881
6.06964e-08
0.0013999
0.155475
0.000825782
0.000655977
0.000682206
0.000560491
0.00114429
0.00101186
0.000881967
0.000638961
2.50778e-07
0.000841332
0.000739989
0.021489
0.0252383
0.000233239
0.000405285
0
0.00281662
1.6486e-10
0.0162874
0.0195228
0.0124942
0.000417547
0.000363925
1.12278e-07
8.00782e-05
1.13326e-05
0.00344604
0.000159723
7.11834e-06
0.00462669
1.07195e-08
0.00657025
2.09702e-09
4.84779e-08
0.00499075
3.58953e-05
0.0167533
2.71315e-08
0.0804822
0.0225661
0.00010793
4.6995e-05
0.0181129
5.5563e-09
0.000475677
0.00438439
0.000417583
0.000456321
0.0163128
0.000601436
0.079937
0.0777849
1.0035e-07
0.00289136
0.00286948
1.33754e-07
7.09218e-08
0.0352475
0.0213372
0.0540105
1.08336e-09
0.0294165
2.11633e-09
0.000160582
0.0721683
0.0729129
0.0635582
0.000539324
0.000491916
0.00879106
0.00798666
0.00689912
2.72934e-06
0.0412106
0.0471097
0
3.62834e-05
0.0974956
0.00563308
1.37254e-06
9.69293e-06
0.148709
0.00104987
0.00289786
0.110511
0.117372
0.0051837
0.112216
1.3789e-07
0.0296111
0.000955593
0.00514632
0.109509
2.57649e-06
0.116418
0.00139842
4.6777e-07
1.42054e-10
0.0109312
5.61196e-06
0.0910526
8.87616e-06
2.31227e-05
0.0130731
2.00132e-05
0
0
0
3.25655e-05
1.03936e-05
0
0.0454459
0
0.0271467
8.0001e-06
8.55009e-06
0
4.36479e-05
0.0181856
0.0247423
9.17956e-05
0
0
0.0188383
0.0216327
0.0177358
0.0685315
0.0134161
0
0
0.0135834
0.0163068
0.00042821
0.0109582
0.003869
1.45366e-08
0
7.24025e-06
0.00430084
7.71217e-06
4.75612e-06
0.0201739
5.80476e-05
2.59359e-05
0.0154575
0.0726333
0.0792043
0
4.23249e-06
0.152228
5.34709e-06
5.32769e-06
1.0559e-05
0.0371629
4.0511e-05
6.35478e-06
2.79218e-06
7.03691e-05
0.0177396
9.31798e-06
0.019005
0.0135411
0.0489363
1.9265e-09
0.0173911
0.0206897
0.0240463
0.0408063
0.000306541
0.0315971
0.000162934
8.06174e-05
0.0236205
0.0121418
5.88235e-06
0.0138529
2.89839e-05
0.0144969
0.059939
0
0.000771241
7.30257e-09
0.000620046
3.72946e-06
7.11407e-06
0.00128896
9.98581e-05
0.00321339
0.0387287
2.24087e-09
1.01532e-09
1.03405e-06
0.0567593
0.0611755
0
0.00271697
3.49365e-09
0
6.48451e-10
0.0137898
2.09814e-05
0.00107175
0
0.0742044
7.09099e-06
0
0.0194722
0.0116801
0.0823594
0.00940285
0.0870543
0.0735801
0.0744638
0.0854006
0.00180316
4.54895e-05
0.163407
0.0234547
2.04163e-05
0.160456
0.165595
1.43611e-06
0.00254087
5.21275e-05
0
0.0193735
0.0468622
0.000706969
0.000400338
0.0390358
0.101102
0.00211263
0
0.0359805
3.67473e-05
0.164794
0.0899181
0.0692455
0.0867699
0.0836746
0.00175562
0.00198146
0.081542
0.00237937
0.00186773
0.063709
0.000806857
0.00158781
0.00245776
2.23564e-05
0.0422637
0.000739483
0.0168275
3.50485e-05
0.126686
0.00639239
0.000176805
8.02943e-05
0.0202161
0.0142985
1.27845e-09
0.0191561
3.26659e-08
6.67634e-09
2.73816e-08
0.00189926
1.04356e-08
0.027699
0.000392144
0.0106619
0.0283209
0.0001057
0.028123
0.0220031
6.74739e-05
1.48656e-07
1.17589e-08
4.54497e-07
0.0072095
0
0
0
1.11963e-05
0.0351761
0.000512222
0.0478683
0.0587171
0.0681641
7.42733e-05
1.52109e-05
0.152582
0.00136486
2.23735e-05
0.0251729
0.0478188
5.5385e-05
7.19174e-06
2.72202e-08
8.96073e-06
9.11281e-05
0.0197168
0.140273
0.0240383
0.150175
5.9045e-06
3.53959e-06
4.01023e-06
6.78307e-06
0.018538
0.0229496
0.00310067
0
0.024655
0.0311256
0
0.00169497
0.112115
1.7252e-06
0.0327194
0.00115989
0.00252831
0
2.38068e-06
0.00131531
0.0195098
0
0.0299166
8.26853e-08
0.0093951
0.000609168
0.00233415
0.0293726
0
1.29341e-07
2.25703e-06
0.00333729
0.0366329
0.00047123
9.29053e-08
0.0272027
0.0776348
7.48818e-07
0.000102812
0.0277821
0.0329796
0.000223446
2.4551e-08
0.0045545
0.021911
0
0.00146274
0
4.0383e-06
3.2072e-06
0
2.08849e-05
0
0.00821322
0.0916366
0.0256506
4.7329e-09
0.0365009
4.52387e-07
0.00334594
0.0104884
2.40246e-05
3.39707e-06
0.0951941
0.000781487
1.3769e-07
0.0415681
2.90782e-08
0.0159085
0.0018186
0.00632439
0.129882
8.62304e-06
0.0252422
9.87798e-06
0.0217252
0.00329601
6.34926e-07
1.17073e-07
0.0145979
1.49633e-08
9.84567e-07
3.40827e-08
0.0130572
2.44444e-09
0.0860695
1.13926e-05
0.00864262
0.0137055
2.49616e-05
4.6369e-06
1.20558e-07
3.0184e-06
0.00306021
4.65956e-05
0.114567
0.0874702
0.000280767
0.00845338
1.90726e-05
0.0137016
0.0218389
0.0826371
0.00515377
0.0126654
1.57393e-05
0.0153048
0.0259128
0.00367795
0.0775448
0.00482741
0
0.0342899
0.0844457
1.58235e-10
0.00673918
4.77499e-07
0.0439818
0.00389904
3.26057e-10
1.53837e-05
0.0768889
0.0798082
6.98496e-06
2.72253e-05
0.0020277
0.00639245
0
0.0677625
0.00258447
0.00941628
8.58738e-06
5.15608e-05
5.21386e-10
0.000237828
0.00353597
0
0.00359648
0
0.0529849
0.0669279
2.39741e-07
0.00718973
0
0.0659717
0.0028901
0.00357564
0.0537978
0.00273144
0
1.22484e-05
0.000727325
0.000818428
7.52036e-09
2.50452e-10
1.25406e-07
1.01571e-06
1.09863e-05
0.119335
1.93424e-10
4.11431e-07
0.113887
0.0968242
2.20949e-07
0.128316
0.0100306
0.137401
0.115125
0.0115893
0.0450513
0.0402527
0.0524469
0.00570694
0.124611
7.23965e-07
0.0561165
9.81386e-05
4.18038e-07
0.0922106
0.000269989
0.000404785
0.0189722
5.18356e-06
0.0149681
0.000169994
0.000273919
2.72755e-08
2.04087e-06
0.115768
0.0277126
3.09786e-05
0.0196784
0.00274128
0.00678204
0
0.0301182
0.00359437
0
0.0251907
0.00262409
0.107777
0.034494
0.00304873
0.00614525
8.5183e-07
0.10105
1.04421e-06
4.36716e-07
0.000966185
0.00206569
1.95185e-10
0.06004
0.000380456
0.00726941
0.0030283
0
0.00187666
0.0254366
1.2125e-10
0
0.00080599
7.58999e-10
2.96456e-07
4.32932e-08
0.0117284
0.00211703
0.0217451
0
0
0.0144925
0
0
0.0023426
0
0.0094287
0
0
1.00825e-05
0.00899899
0.0138631
2.22163e-05
1.81318e-09
0
0.0598132
0.0606651
0.000622229
0.0576302
0.0724245
0.00086261
6.36739e-10
1.01691e-07
0.00362549
0.00146053
1.50533e-09
1.93319e-09
9.51698e-09
0.00512495
0.000452107
5.5879e-05
0.000213615
5.0322e-10
1.83146e-07
9.48372e-10
2.08856e-08
3.69601e-10
0.00614082
0.000102032
0
0.00023841
0.0317676
0.000526063
0.000612152
0.0306358
0.0946566
0.000432143
0
0.0011936
2.25951e-10
0.0932351
0
0.000106518
0.0264825
0.000245703
5.65188e-07
0.0679848
3.3173e-06
0
0.0457574
0.00057075
0.0176891
0.00915726
0.00824563
0.0525952
0.000721565
1.695e-05
4.2224e-05
0.0882191
0.0864582
0.00518812
4.50692e-06
0.0167003
3.83336e-05
0
0
1.48987e-06
0.00147771
0.0888214
0.0945
0.00253571
0.00894577
1.90893e-05
0
0.0952781
0.0362042
0.0511373
0
0.0817706
0.001008
0.0674443
8.63276e-07
0.079317
0.00358941
0.155827
0.0033956
0
0.0280686
3.08394e-05
0.155941
0.0596431
0.0038036
0.00446602
5.37381e-07
4.25722e-07
1.52448e-10
6.82819e-05
0.0187785
0.000462375
0.000255979
1.56592e-07
3.11134e-10
0.00202792
4.71322e-06
0.0102836
0.163536
0.159136
0.161979
0.16189
0.000217472
1.70126e-10
0.0727718
0.163797
0
1.42767e-05
0.0117201
0.017209
3.09787e-05
3.83756e-08
0.159384
0.00199353
0.0774083
7.93232e-07
0.00764694
1.48495e-07
1.54562e-07
0.000191255
0.125678
2.24797e-09
0.162159
0.0654964
0.000845497
0.0332409
0.0240089
0.0403026
0
0.117932
0.152792
0.148377
0.00106147
0.164219
0.0748166
0.00212449
0.158759
0.0156601
4.75948e-08
0.0669534
6.83116e-07
0.000840104
0.15948
0.0877022
2.52547e-05
0.151954
0.0601709
0.000686155
0.0810072
0.085039
0.000933574
0.152075
0.0163281
0.00459433
0.0184744
0.0886301
0.052801
1.01138e-10
0.0909269
7.48236e-07
0.000185039
8.56233e-08
0.00359406
0.000126358
0.0110041
1.93569e-06
0.0936182
1.51646e-10
0.0213159
0.14564
0.0122325
0.00798513
0.136491
0.00860512
0.0019627
0.0144125
1.6659e-09
0.156191
0.075937
0.00218654
0.00110883
0.0252756
0.0346953
1.76615e-08
0.0719783
0.0207173
3.11779e-05
0.00150069
0.00342482
0
0.00338712
2.63319e-05
0.00082386
0.022888
0.000921115
0.00226904
3.65869e-05
6.80213e-05
0.0233719
0.0245469
0.0561224
7.28547e-07
0.0998098
0.0125228
0.0877264
0.0507454
0.00542644
0.133609
6.03788e-05
2.27361e-05
0.0574604
0.000353858
0.0141002
3.24923e-05
0.154748
7.25896e-08
0.00166911
0.153614
0.0931434
0
0.00463792
0.042655
0.00508325
0.0107325
2.30009e-10
0.00263008
0.000222623
0.080788
3.61266e-07
0.0714373
0.000940883
2.2361e-06
0.00271466
0.00497538
5.09422e-06
0.0523709
3.37457e-06
0.000996791
0.0825839
2.85995e-07
0.00103935
0.0529872
0.00426125
2.74931e-07
0.00104642
0.0752323
2.09531e-06
0.0237375
3.96444e-06
5.53899e-06
0.0190042
0.00893786
0.00122385
0.00916791
0
0
6.1784e-05
0.00302378
0.0123019
0
0.00829867
0.0115134
6.72289e-05
3.27045e-08
9.02234e-06
0.000193007
3.41833e-05
0.0601718
1.1153e-05
0.0562229
2.76612e-06
3.22035e-06
0
9.83542e-06
0
0
0.0178133
0.155448
4.85013e-05
0
0.0623514
0.000126304
2.08238e-05
0.000151369
3.41284e-09
0.022598
0.0859408
0.000514152
0.048217
0.0292008
6.45134e-05
9.49901e-05
9.83181e-09
0.00575886
2.64926e-06
1.20133e-06
0.00243083
0.0212762
9.16037e-05
0.00797083
1.58715e-05
0.00956151
0.020865
0.116763
4.47116e-09
0.00599482
0.0640707
0.0177881
0.0645223
0.000712607
0.0548727
0.101683
0.0651721
0.0192016
0.0719152
5.55254e-05
0.000141073
0.00238612
0.00271902
0.0566598
4.65528e-07
0.00537035
0.0965601
0.00885406
0.0794643
5.2184e-07
1.78209e-07
0.00237907
0.10357
0.00406558
0.00178748
0.0869499
0.0121519
0.0537086
0.118223
0.00137889
0.070775
0.091463
0.136309
0.00768358
2.06509e-10
0.0158679
0.00075385
0.0646826
0
0.0433889
1.51585e-05
0.124018
6.97615e-05
0.0130707
2.13929e-05
2.79755e-09
0.00297836
1.13444e-05
0.0156535
0.146988
9.06456e-06
0.000785667
2.81767e-05
0.160774
0.000164575
2.06253e-07
2.4346e-06
0.00084293
0.156377
0.160567
0.0288565
0.00317426
5.33206e-05
0.156877
0.0182038
0.0540953
0.10792
0.0890538
3.10707e-07
0.00232416
0.0778174
0.00375006
0.011478
0.07977
0.148268
0.0678919
4.6476e-09
3.51988e-07
0.0692545
0.00103341
0.000694042
0.0565382
0.016683
1.53004e-05
0.0147993
0.0594555
0.058803
0.0944556
0.103991
7.05294e-07
0.060258
4.40675e-05
0.0976883
7.46778e-07
0.0529528
1.25607e-07
0.00129738
6.821e-08
0.0306731
0.00333616
0.000541058
7.4768e-05
0.0231038
0.0361819
0.000716156
0.0164509
5.92829e-08
0.0170102
0.000534101
1.6036e-09
2.78513e-08
0.0212865
0.0108388
1.1345e-08
0.089431
2.16416e-06
0
0
0.082578
1.96804e-07
0
0.0040825
0.00717283
7.04616e-06
0.0166734
3.48316e-05
0
0.000287616
2.31448e-05
3.52216e-05
0.00286757
6.83241e-06
0.0986966
5.68968e-06
0
0
0.0346135
0.00048828
6.74223e-06
1.74386e-06
0.093446
0
0.00230488
0
0.108008
0.00217641
2.46944e-06
0.101179
0.0105031
0
0
0.00503564
0.0557274
1.77218e-06
0.018847
0.000125916
4.87544e-09
0.0228406
0.102036
0.0232508
0.11221
0.0245028
0.0108802
0.000529103
0.108994
0.0205028
1.7129e-07
1.80326e-06
2.77147e-05
0.145279
8.3728e-05
2.42531e-05
0.154493
1.54492e-06
0.024736
0.108906
0.141358
0.00128314
5.83694e-09
5.09071e-08
0.0233532
0.00241195
0
0.000562382
0.000672229
0.0654013
0.0161928
0.00590714
0.0180514
0.0669977
0.000572015
0.00397548
0
0
0.0197468
0
0.0120715
0.00256615
4.31736e-06
6.86484e-08
0.00525495
0.151906
0.0641788
1.19747e-06
1.90598e-06
1.55869e-06
1.8879e-06
0.00503643
9.86183e-07
0.00464846
0.00108259
0.117464
1.2036e-07
0.0633561
1.22339e-06
0.00655998
1.58579e-06
2.05766e-07
1.67915e-06
0.0620859
0.156282
1.95258e-06
0.00620703
9.45702e-06
0.00503694
0.072542
8.08882e-07
1.23771e-05
0.01953
0.0315859
0.000534209
0.013317
1.59611e-06
0.109194
0.00197041
0.0139701
1.37935e-05
6.29207e-06
0.00864455
0.14643
2.75061e-05
0
0
4.74655e-06
8.18691e-05
1.37253e-05
0.0161917
0.0677236
0.0617383
2.73657e-08
0.00298429
0.00167781
0.00172583
0.159816
0
0.0186612
0
0.00387476
0.0855438
6.74149e-06
0
2.30002e-06
1.68718e-07
0.0485127
0.0471662
0.00889759
0
0
0.0164146
3.06672e-05
5.15135e-05
0.0945219
0.00330594
0.0300238
4.91288e-09
8.39951e-06
0.00318378
0.000472728
0.0681092
0.0169304
0.0637975
6.62119e-09
3.79943e-08
5.13422e-08
1.45706e-08
2.44121e-06
2.00357e-08
0.00106475
0.00110303
0.00640106
0.0413639
0.0355918
0.0111419
3.79811e-05
1.25965e-09
0.000133479
0.00122559
4.974e-05
1.14748e-05
0.00122088
7.38437e-07
0.00898738
0.0123523
0.00152062
0.000852467
0.0109119
0.0803202
0
0
4.84815e-07
0.0574029
0.0683425
2.99466e-06
2.40364e-07
0.0624275
1.93638e-07
0.0640291
0.0643538
0.0495416
0.0539072
1.22954e-09
1.18308e-06
0.0950517
0.00715354
0.000948287
0.0359438
3.02622e-08
0
0.00373592
0.000255366
0.000347634
0.000262389
0.0242556
6.5467e-09