# vtk DataFile Version 2.0
Unstructured Grid by M++
ASCII
DATASET UNSTRUCTURED_GRID
POINTS 4072 float
  0.609375   0.843750 0
  0.562500   0.843750 0
  0.531250   0.843750 0
  0.875000   0.828125 0
  0.984375   0.828125 0
  0.953125   0.828125 0
  0.937500   0.828125 0
  0.843750   0.828125 0
  0.812500   0.828125 0
  0.781250   0.828125 0
  0.765625   0.828125 0
  0.734375   0.828125 0
  0.703125   0.828125 0
  0.671875   0.828125 0
  0.640625   0.828125 0
  0.609375   0.828125 0
  0.593750   0.828125 0
  0.562500   0.828125 0
  0.546875   0.828125 0
  0.531250   0.828125 0
  0.515625   0.828125 0
  0.968750   0.812500 0
  0.937500   0.812500 0
  0.921875   0.812500 0
  0.890625   0.812500 0
  0.859375   0.812500 0
  0.828125   0.812500 0
  0.796875   0.812500 0
  0.765625   0.812500 0
  0.750000   0.812500 0
  0.718750   0.812500 0
  0.687500   0.812500 0
  0.656250   0.812500 0
  0.625000   0.812500 0
  0.593750   0.812500 0
  0.578125   0.812500 0
  0.546875   0.812500 0
  0.531250   0.812500 0
  0.515625   0.812500 0
  0.984375   0.796875 0
  0.562500   0.015625 0
  0.953125   0.796875 0
  0.921875   0.796875 0
  0.906250   0.796875 0
  0.875000   0.796875 0
  0.843750   0.796875 0
  0.812500   0.796875 0
  0.781250   0.796875 0
  0.750000   0.796875 0
  0.734375   0.796875 0
  0.703125   0.796875 0
  0.671875   0.796875 0
  0.640625   0.796875 0
  0.609375   0.796875 0
  0.578125   0.796875 0
  0.562500   0.796875 0
  0.531250   0.796875 0
  0.515625   0.796875 0
  0.968750   0.781250 0
  0.546875   0.000000 0
  0.937500   0.781250 0
  0.906250   0.781250 0
  0.890625   0.781250 0
  0.859375   0.781250 0
  0.828125   0.781250 0
  0.796875   0.781250 0
  0.765625   0.781250 0
  0.734375   0.781250 0
  0.718750   0.781250 0
  0.687500   0.781250 0
  0.656250   0.781250 0
  0.625000   0.781250 0
  0.593750   0.781250 0
  0.562500   0.781250 0
  0.546875   0.781250 0
  0.515625   0.781250 0
  0.984375   0.765625 0
  0.953125   0.765625 0
  0.921875   0.765625 0
  0.890625   0.765625 0
  0.875000   0.765625 0
  0.843750   0.765625 0
  0.812500   0.765625 0
  0.781250   0.765625 0
  0.750000   0.765625 0
  0.718750   0.765625 0
  0.703125   0.765625 0
  0.671875   0.765625 0
  0.640625   0.765625 0
  0.609375   0.765625 0
  0.578125   0.765625 0
  0.593750   0.750000 0
  0.562500   0.765625 0
  0.546875   0.765625 0
  0.531250   0.765625 0
  0.562500   0.750000 0
  0.968750   0.750000 0
  0.937500   0.750000 0
  0.906250   0.750000 0
  0.875000   0.750000 0
  0.859375   0.750000 0
  0.828125   0.750000 0
  0.796875   0.750000 0
  0.765625   0.750000 0
  0.734375   0.750000 0
  0.703125   0.750000 0
  0.687500   0.750000 0
  0.671875   0.750000 0
  0.656250   0.750000 0
  0.625000   0.750000 0
  0.546875   0.750000 0
  0.531250   0.750000 0
  0.515625   0.750000 0
  0.562500   0.734375 0
  0.984375   0.734375 0
  0.953125   0.734375 0
  0.921875   0.734375 0
  0.890625   0.734375 0
  0.859375   0.734375 0
  0.843750   0.734375 0
  0.812500   0.734375 0
  0.781250   0.734375 0
  0.750000   0.734375 0
  0.718750   0.734375 0
  0.687500   0.734375 0
  0.671875   0.734375 0
  0.656250   0.734375 0
  0.640625   0.734375 0
  0.546875   0.734375 0
  0.531250   0.734375 0
  0.515625   0.734375 0
  0.562500   0.718750 0
  0.968750   0.718750 0
  0.937500   0.718750 0
  0.906250   0.718750 0
  0.875000   0.718750 0
  0.843750   0.718750 0
  0.796875   0.718750 0
  0.765625   0.718750 0
  0.734375   0.718750 0
  0.703125   0.718750 0
  0.687500   0.718750 0
  0.671875   0.718750 0
  0.656250   0.718750 0
  0.625000   0.718750 0
  0.546875   0.718750 0
  0.531250   0.718750 0
  0.515625   0.718750 0
  0.562500   0.703125 0
  0.953125   0.703125 0
  0.921875   0.703125 0
  0.890625   0.703125 0
  0.859375   0.703125 0
  0.828125   0.703125 0
  0.781250   0.703125 0
  0.750000   0.703125 0
  0.718750   0.703125 0
  0.687500   0.703125 0
  0.656250   0.703125 0
  0.546875   0.703125 0
  0.531250   0.703125 0
  0.515625   0.703125 0
  0.984375   0.687500 0
  0.937500   0.687500 0
  0.921875   0.687500 0
  0.906250   0.687500 0
  0.875000   0.687500 0
  0.843750   0.687500 0
  0.812500   0.687500 0
  0.765625   0.687500 0
  0.734375   0.687500 0
  0.703125   0.687500 0
  0.671875   0.687500 0
  0.640625   0.687500 0
  0.593750   0.687500 0
  0.562500   0.687500 0
  0.546875   0.687500 0
  0.531250   0.687500 0
  0.515625   0.687500 0
  0.968750   0.671875 0
  0.937500   0.671875 0
  0.921875   0.671875 0
  0.906250   0.671875 0
  0.890625   0.671875 0
  0.859375   0.671875 0
  0.828125   0.671875 0
  0.796875   0.671875 0
  0.765625   0.671875 0
  0.750000   0.671875 0
  0.718750   0.671875 0
  0.687500   0.671875 0
  0.656250   0.671875 0
  0.625000   0.671875 0
  0.593750   0.671875 0
  0.578125   0.671875 0
  0.546875   0.671875 0
  0.531250   0.671875 0
  0.515625   0.671875 0
  0.984375   0.656250 0
  0.953125   0.656250 0
  0.937500   0.656250 0
  0.921875   0.656250 0
  0.906250   0.656250 0
  0.875000   0.656250 0
  0.843750   0.656250 0
  0.812500   0.656250 0
  0.781250   0.656250 0
  0.750000   0.656250 0
  0.734375   0.656250 0
  0.703125   0.656250 0
  0.671875   0.656250 0
  0.640625   0.656250 0
  0.609375   0.656250 0
  0.578125   0.656250 0
  0.562500   0.656250 0
  0.531250   0.656250 0
  0.515625   0.656250 0
  0.968750   0.640625 0
  0.937500   0.640625 0
  0.906250   0.640625 0
  0.890625   0.640625 0
  0.859375   0.640625 0
  0.828125   0.640625 0
  0.796875   0.640625 0
  0.765625   0.640625 0
  0.734375   0.640625 0
  0.718750   0.640625 0
  0.687500   0.640625 0
  0.656250   0.640625 0
  0.625000   0.640625 0
  0.593750   0.640625 0
  0.562500   0.640625 0
  0.546875   0.640625 0
  0.515625   0.640625 0
  0.984375   0.625000 0
  0.953125   0.625000 0
  0.921875   0.625000 0
  0.890625   0.625000 0
  0.875000   0.625000 0
  0.843750   0.625000 0
  0.812500   0.625000 0
  0.781250   0.625000 0
  0.750000   0.625000 0
  0.734375   0.625000 0
  0.718750   0.625000 0
  0.703125   0.625000 0
  0.671875   0.625000 0
  0.640625   0.625000 0
  0.609375   0.625000 0
  0.578125   0.625000 0
  0.562500   0.625000 0
  0.546875   0.625000 0
  0.531250   0.625000 0
  0.968750   0.609375 0
  0.937500   0.609375 0
  0.906250   0.609375 0
  0.875000   0.609375 0
  0.859375   0.609375 0
  0.828125   0.609375 0
  0.796875   0.609375 0
  0.765625   0.609375 0
  0.750000   0.609375 0
  0.734375   0.609375 0
  0.718750   0.609375 0
  0.703125   0.609375 0
  0.687500   0.609375 0
  0.656250   0.609375 0
  0.625000   0.609375 0
  0.593750   0.609375 0
  0.562500   0.609375 0
  0.546875   0.609375 0
  0.531250   0.609375 0
  0.515625   0.609375 0
  0.984375   0.593750 0
  0.953125   0.593750 0
  0.921875   0.593750 0
  0.890625   0.593750 0
  0.859375   0.593750 0
  0.843750   0.593750 0
  0.812500   0.593750 0
  0.781250   0.593750 0
  0.750000   0.593750 0
  0.734375   0.593750 0
  0.718750   0.593750 0
  0.687500   0.593750 0
  0.671875   0.593750 0
  0.640625   0.593750 0
  0.609375   0.593750 0
  0.578125   0.593750 0
  0.562500   0.593750 0
  0.546875   0.593750 0
  0.531250   0.593750 0
  0.515625   0.593750 0
  0.968750   0.578125 0
  0.937500   0.578125 0
  0.906250   0.578125 0
  0.875000   0.578125 0
  0.890625   0.562500 0
  0.843750   0.578125 0
  0.828125   0.578125 0
  0.796875   0.578125 0
  0.765625   0.578125 0
  0.734375   0.578125 0
  0.703125   0.578125 0
  0.671875   0.578125 0
  0.656250   0.578125 0
  0.656250   0.562500 0
  0.625000   0.578125 0
  0.640625   0.562500 0
  0.593750   0.578125 0
  0.562500   0.578125 0
  0.546875   0.578125 0
  0.531250   0.578125 0
  0.515625   0.578125 0
  0.859375   0.562500 0
  0.828125   0.562500 0
  0.781250   0.562500 0
  0.750000   0.562500 0
  0.718750   0.562500 0
  0.687500   0.562500 0
  0.609375   0.562500 0
  0.578125   0.562500 0
  0.562500   0.562500 0
  0.546875   0.562500 0
  0.531250   0.562500 0
  0.515625   0.562500 0
  1.000000   0.812500 0
  0.578125   0.031250 0
  0.875000   0.546875 0
  0.625000   0.546875 0
  0.218750   0.000000 0
  0.640625   0.781250 0
  0.828125   0.093750 0
  0.031250   0.531250 0
  0.296875   0.328125 0
  0.296875   0.312500 0
  0.281250   0.312500 0
  0.765625   0.312500 0
  0.031250   0.859375 0
  0.093750   0.265625 0
  0.109375   0.250000 0
  0.187500   0.671875 0
  0.421875   0.640625 0
  0.031250   0.062500 0
  0.140625   0.125000 0
  0.562500   0.906250 0
  0.125000   0.437500 0
  0.203125   0.937500 0
  0.125000   0.421875 0
  0.140625   0.406250 0
  0.093750   0.437500 0
  0.109375   0.421875 0
  0.093750   0.421875 0
  0.109375   0.406250 0
  0.328125   0.125000 0
  0.750000   0.906250 0
  0.328125   0.109375 0
  0.750000   0.890625 0
  0.312500   0.125000 0
  0.734375   0.906250 0
  0.281250   0.343750 0
  0.265625   0.359375 0
  0.500000   0.796875 0
  0.078125   0.015625 0
  0.062500   0.015625 0
  0.484375   0.796875 0
  0.484375   0.781250 0
  0.062500   0.000000 0
  0.015625   0.250000 0
  0.062500   0.046875 0
  0.484375   0.828125 0
  0.484375   0.812500 0
  0.062500   0.031250 0
  0.281250   0.671875 0
  0.062500   0.234375 0
  0.328125   0.765625 0
  0.312500   0.750000 0
  0.015625   0.671875 0
  0.781250   0.187500 0
  0.015625   0.265625 0
  0.453125   0.250000 0
  0.453125   0.234375 0
  0.031250   0.265625 0
  0.046875   0.250000 0
  0.093750   0.015625 0
  0.265625   0.656250 0
  0.734375   0.281250 0
  0.156250   0.015625 0
  0.062500   0.265625 0
  0.046875   0.281250 0
  0.031250   0.281250 0
  0.343750   0.781250 0
  0.328125   0.781250 0
  0.265625   0.687500 0
  0.265625   0.703125 0
  0.156250   0.109375 0
  0.578125   0.890625 0
  0.484375   0.984375 0
  0.062500   0.203125 0
  0.328125   0.718750 0
  0.343750   0.734375 0
  0.343750   0.750000 0
  0.453125   0.500000 0
  0.437500   0.500000 0
  0.234375   0.093750 0
  0.171875   0.375000 0
  0.437500   0.531250 0
  0.468750   0.546875 0
  0.453125   0.546875 0
  0.187500   0.015625 0
  0.187500   0.000000 0
  0.609375   0.781250 0
[...]
CELL_DATA 7648
SCALARS scalar_value float 1
LOOKUP_TABLE default
0.000967678
0.0010536
0.0012437
0.000939308
0.0608928
0.0629507
0.0686528
0.061528
0.0010022
0.00118923
0.0012771
0.0276704
0.0290723
0.0233607
0.000195888
0.000169361
0.000180007
0.000134499
5.16363e-07
4.987e-07
6.0712e-07
4.26059e-07
2.27615e-07
4.4225e-08
4.87321e-08
7.11102e-08
3.8448e-08
0.00308239
0.00331646
7.55673e-09
9.53161e-09
1.28207e-08
7.58915e-09
2.13497e-08
2.68726e-08
3.50883e-08
2.27047e-08
8.31449e-09
1.11181e-08
1.4796e-08
2.25149e-09
5.02086e-09
0.00130989
0.00178271
0.00180763
0.0177687
0.0204212
0.023766
4.58427e-08
0.0262234
0.0693559
5.50389e-07
6.06531e-08
8.00678e-08
0.000851698
6.45313e-08
0.00110345
0.000656336
1.59418e-08
2.34087e-08
3.435e-08
2.02716e-07
1.3908e-07
0.00136854
0.00113323
0
0
4.51262e-08
4.92479e-05
0
2.05656e-05
0
0.000142246
0.000263934
0.00146101
0
0.00209579
0
0.00138992
0.000511209
0.000688268
0
0
0
0.0345096
2.90324e-08
1.29877e-05
1.17379e-05
0.00207574
0
1.50919e-09
0
8.01964e-07
1.1118e-06
0
2.97897e-08
0.00243648
5.01908e-08
0.0031573
0.00388265
0.000368198
1.76349e-07
0.000409836
0.000743334
3.93306e-07
1.61963e-05
0.000145638
0.0313412
0.0295182
8.12752e-10
2.38302e-08
0.000100198
9.94861e-05
0
1.34013e-06
0
1.74306e-06
9.58785e-07
3.35906e-08
0.0538969
0.0558547
0
0
2.41315e-06
0
0
0
0.0108392
0.0132716
0.00904254
0
0.00581915
0
0.0160161
4.25553e-05
0.0150722
0.00290385
1.02457e-07
1.95527e-08
0.0158551
0.00181093
0.017767
0.0193402
8.43438e-09
0.0189879
0.0201422
0.0559787
6.03892e-07
0.0697354
0.00143583
0.00135637
8.72359e-08
1.14278e-07
1.46727e-07
0.00932303
0.0075846
0.039097
1.26336e-08
0.0328011
7.85257e-08
0
5.67323e-07
6.62501e-07
0.00010476
0.019502
0.0230237
9.73038e-09
0.0169908
1.66394e-07
0.110921
0
0.0225087
0.0232574
0.00459451
8.51182e-05
1.93982e-06
0.0727812
0.0101689
3.94766e-05
0.0119283
0.0142723
5.44261e-05
0.0386312
0.00270798
0
9.51644e-07
0.0764556
0
0
0.0039127
0
0.0045044
0.00406582
0
3.76387e-09
0.00459196
0.00549115
0.00454366
0
0
0
0.0347303
1.20615e-06
0.083772
0.0795763
1.08541e-06
1.06714e-07
0.0167651
0.0186192
0.0152132
8.4584e-09
1.33538e-08
1.98624e-08
1.19975e-08
0.0168499
2.0013e-06
0
0.129506
0
0.000781188
0.00171487
0.0183959
0.0215827
3.85583e-09
0.0176829
8.44394e-10
0.000238422
0.000628929
0.0140587
0.0117137
0.0847078
0.0741075
0.00730882
1.83512e-05
0.0974652
0.101604
0.106445
0.102117
0.00515735
0
0.00443418
0.00738049
1.70861e-05
0.00145724
0.00164472
0.0150083
6.01544e-05
0.0133443
0.0156524
5.10649e-10
0.0125995
0.000860167
1.04116e-07
1.40522e-07
1.36028e-07
0.00216624
7.82463e-06
0.00285568
0.00330393
4.00251e-07
4.94985e-07
4.88358e-07
0.0083605
1.11648e-08
3.21909e-09
0.0134465
9.43432e-09
0.0214541
6.73937e-09
0.00960552
0.0486171
4.27079e-07
0
0.0482408
0.00717776
1.70121e-09
0.128125
0.00325972
1.06585e-05
1.32056e-05
1.81958e-09
0.00165884
0.00218912
0.0115551
2.55839e-05
0.00816114
0.0118353
2.13653e-09
9.02129e-10
0.00611916
1.52421e-09
0.0169273
0.000338234
1.01686e-10
1.3228e-05
1.33904e-05
1.41551e-10
1.6596e-05
0
0.00112727
8.644e-07
3.7777e-05
0.0256699
0.00167322
2.772e-07
2.25607e-07
2.01571e-07
1.52461e-06
0.00358023
4.70547e-06
3.43264e-06
0.0071295
0.0216709
0
0.0041262
0.000326143
1.71187e-06
0.00374688
1.33946e-06
0.000200068
9.65592e-07
1.88953e-07
0.00124463
0.0031735
0.00589077
8.31301e-06
1.7163e-06
0.00315555
0.0043648
3.80803e-06
0.00370705
8.04748e-08
0.0195849
0.000782653
0.0307731
0.000718792
0.0295835
0.047439
0.0419052
4.87659e-07
0.00164414
0.0616322
0.0557948
0
0.0415734
0.000359595
0.000502836
0.0180744
5.63745e-10
0
0
0
5.53982e-07
0.00736396
2.31034e-10
0.00631663
8.6672e-10
0.0543913
0.0488479
0.0474144
1.13532e-05
9.10073e-06
9.68579e-06
7.53966e-05
0.00432794
0.00391534
0.00456164
0
2.26466e-10
1.40881e-10
0.00448941
5.90642e-05
7.93551e-10
0.00846619
4.7536e-10
0.0125143
0.00562704
1.1135e-10
0.000187831
2.2722e-07
9.70331e-06
0.00782793
1.46372e-05
0.000242701
0.0164749
0.00011294
0.0170474
3.6229e-05
3.50606e-09
0.0211011
0.0181552
0.000127389
0.0326597
0.0287151
0.0297589
5.50108e-08
5.83639e-08
0.050296
0.00402317
0.000164834
1.38887e-08
0.0323995
0.00394851
0.000127909
0.00499068
0.000104406
1.77106e-09
0.00463213
0.0402641
4.08247e-08
0.0121739
0.00237826
0.00147769
0.00687858
4.00485e-05
0.000432572
0
0.000421011
4.78033e-10
4.04989e-05
0.00372548
6.60062e-05
0.0156402
1.80569e-07
4.44646e-07
3.93791e-07
0.0542815
4.03198e-07
0.00310527
2.19605e-08
0.00325798
1.20117e-06
1.66957e-08
1.48382e-10
1.84688e-08
1.07145e-08
3.93281e-09
0
0.0511352
0.00274798
2.92875e-06
0.00205729
2.87997e-07
3.21969e-07
0.00599421
4.33259e-07
0.00598336
0.00499397
0.0019482
0.00281331
0.0803207
1.487e-06
1.56746e-08
1.09272e-06
0.00221515
2.34571e-08
3.0233e-08
2.57085e-08
0.00121951
0.00436371
0.0433721
8.6755e-07
0.00128136
0.0010464
0
1.19236e-08
9.78601e-09
0
0
3.41529e-10
0.010109
0
1.37147e-05
0
1.06719e-10
1.31931e-05
1.96233e-07
0.000614787
0
0.0031016
0
7.43374e-06
0
0
0.00544813
0.00696083
0.00870919
0.004322
1.89032e-06
2.99392e-06
0
2.15311e-06
0
1.0627e-05
0.00116437
0
1.10602e-06
0.0469814
0.000387396
1.41364e-08
1.0562e-08
0.00453533
0.000122668
1.33213e-08
9.87325e-09
0.0250052
3.41274e-08
2.66032e-08
2.51067e-08
2.00376e-08
0.051431
0.00177023
3.07419e-08
1.03583e-10
0.0022896
6.06801e-09
0.010862
2.58313e-08
5.85317e-09
0.012235
2.06216e-08
0.021108
1.28158e-08
2.14897e-08
0.00201243
5.9162e-05
0.124588
0.0135109
5.96546e-05
4.25081e-05
0.0108733
4.47029e-09
0.0252847
6.1988e-09
8.72152e-05
0.074685
0.000138245
0.0630985
6.87279e-05
0.000201759
9.59923e-05
0.000229381
1.05579e-08
1.12122e-08
0.0399496
4.40072e-05
0.00472687
4.49059e-05
0.00174069
5.58575e-05
4.12061e-05
0.119726
6.53146e-05
5.62096e-05
0.000338866
0.000351313
0.000470693
0.0309002
3.60229e-08
1.73105e-08
0.0282602
3.70053e-09
1.25933e-09
6.27585e-09
0.000834868
3.88463e-05
4.42336e-07
0.000960516
0.000850363
0.00129919
2.31464e-07
0.00238674
4.70639e-05
0.0112795
6.07422e-09
3.02613e-05
0.0570803
2.89751e-09
0.00447275
6.46871e-07
0.000220509
0.000213661
1.55641e-09
2.5034e-09
0.00242863
9.79969e-10
0.000446469
0.0182676
2.41209e-09
0.0389727
0.0445223
0
1.27977e-08
1.46407e-08
0.114342
3.2074e-08
7.51984e-05
0.00738632
8.6644e-09
0.0114174
1.26505e-08
8.20391e-09
4.98075e-09
5.32988e-09
0.00740974
0.00723139
6.53453e-09
0.0244056
5.23757e-05
0.0845746
0.0831179
0.0844381
0.00770177
0.006828
0.0074046
4.20186e-07
0.0165523
3.50304e-07
1.75698e-08
4.04696e-09
0.00732024
6.09577e-09
7.68555e-09
9.52867e-09
0.0110068
1.21035e-08
8.00115e-09
2.86712e-09
4.14237e-09
5.03446e-09
7.91649e-09
0.00346109
2.2495e-09
2.79668e-09
0.109434
9.11073e-06
0.116468
0.00695873
9.19841e-05
7.99004e-05
0.0259767
0.019803
0.000246112
0.0949233
0.00654049
0.0160336
0.0196375
2.24577e-10
3.70551e-10
0
1.05549e-05
0.0108788
0.01251
9.05401e-10
0
2.38367e-05
1.3984e-09
1.85523e-05
6.25766e-05
1.21767e-05
0.00137546
0.00268046
9.32794e-06
1.21655e-08
1.46567e-07
0.0485339
1.28722e-08
1.68072e-07
0
0
0
6.57184e-08
0.0663194
1.92817e-08
0.0596883
1.06395e-06
0.000453039
0.000486554
0.000632521
0.0261897
0.0277519
0.0279716
0.00152583
0
0.000175667
0.0211852
0.0378067
0.0191583
2.36714e-09
0.00425666
0.0218791
0.0244075
6.43515e-09
0.000262468
0.022669
0.0284204
0.000404352
2.64667e-07
0.023176
0.00795106
0.00651998
0.00384897
0.00369652
1.04344e-05
0.00248951
4.66843e-06
0.00179764
0.00222385
0.0520939
0.057918
0.0944458
0.0995059
0.103353
0.00477936
0.003284
0.074684
0.0809986
1.22101e-06
7.4485e-06
0.0801333
0.0861777
0.00212387
0.00228003
0.00192409
0.0621494
0.0681278
0.0114715
0.0736636
0.00114135
0.00133979
0.00162166
0.0497164
0.0551106
0.0603714
1.3141e-07
8.01682e-08
0.000213973
0.0431587
0.0420912
0.0478259
0.00320103
0.0464964
0.0553422
0.0525562
4.09376e-08
0.000589414
1.16613e-05
0.000764123
0.00134967
1.94816e-07
0.0307195
0.0353319
0.0396973
2.84463e-09
6.9083e-09
3.89357e-09
4.49236e-09
0.000480934
0.000349187
3.64875e-10
0.00496808
3.25972e-06
2.44508e-10
4.82685e-10
2.6544e-05
1.31044e-09
0.00587637
0.0576547
4.55723e-05
2.31609e-05
2.50618e-05
1.97228e-05
3.63714e-05
3.18142e-05
2.72562e-05
3.51262e-05
1.01496e-08
4.83901e-05
4.50045e-05
0.00141706
0.0018125
7.0852e-06
1.2734e-05
0
0.00464812
0
0.000962129
0.00119554
0.0105294
2.04412e-05
1.82066e-05
2.08585e-09
2.157e-06
2.57806e-07
0.00402336
4.58352e-06
1.43732e-07
0.00182338
2.0028e-10
0.00281181
0
9.22222e-10
0.00219747
9.54616e-07
0.00100385
4.98201e-10
0.00928752
0.00154482
3.20474e-06
1.3054e-06
0.00116151
2.11746e-10
1.59019e-05
0.00119805
1.40028e-05
1.55517e-05
0.00144357
1.79671e-05
0.014912
0.0157165
3.26502e-09
0.00150136
0.00343966
2.75853e-09
1.47047e-09
0.077549
0.0085563
0.00668773
0
0.00532948
0
7.71462e-06
0.0109932
0.0113998
0.00933385
1.58067e-05
1.42656e-05
0.0209952
0.00260788
0.00213298
5.51609e-08
0.00306226
0.00368829
0
1.35663e-06
0.08112
0.00196351
2.72909e-08
2.29544e-07
0.0323236
0.00463601
0.000117285
0.0164497
0.0180978
0.000233032
0.0178865
3.0342e-09
0.00279597
2.94383e-05
0.000274122
0.0208337
6.06505e-08
0.0234302
0.00715771
9.72121e-09
0
0.0123021
1.12985e-07
0.0154825
3.09912e-07
7.77524e-07
0.00148723
6.96083e-07
0
0
0
8.23357e-07
3.49403e-07
0
0.00571591
0
0.00268032
2.46672e-07
2.7994e-07
0
1.53821e-06
0.00225139
0.00334542
3.33129e-06
0
0
0.00107782
0.00129031
0.00100316
0.0469246
0.00108171
0
0
0.00099202
0.00129301
1.24004e-05
0.000812407
0.00173133
2.73999e-10
0
1.47219e-07
0.00246231
1.59394e-07
9.70218e-08
0.00142976
1.67259e-06
7.10471e-07
0.00103417
0.0327211
0.0397451
0
9.28671e-08
0.0447285
1.18249e-07
1.1589e-07
2.122e-07
0.0678044
2.34613e-06
1.26873e-07
5.54508e-08
3.57959e-06
0.00466304
1.86802e-07
0.00539264
0.00373982
0.0532313
0
0.00203475
0.00244924
0.0030771
0.00505903
1.06082e-05
0.00349122
5.44335e-06
2.5991e-06
0.00236565
0.00157038
2.14179e-07
0.00142363
9.80653e-07
0.00156536
0.0469952
0
0.00010705
1.37184e-10
7.61412e-05
7.37331e-08
1.41098e-07
0.000169684
2.86823e-06
0.00016981
0.00393464
0
0
1.98175e-08
0.0471989
0.0550211
0
0.00362005
0
0
0
0.000842113
5.51259e-07
0.00435909
0
0.0363953
2.65537e-07
0
0.00169336
0.00399209
0.121945
0.0339843
0.12121
0.124485
0.0163958
0.119328
0.00763713
1.28793e-06
0.0631452
0.0107903
5.51852e-07
0.0570939
0.0576681
2.87936e-08
0.000892713
1.12321e-06
0
0.00122348
0.00948711
3.23524e-05
1.73877e-05
0.00751344
0.116588
0.000113993
0
0.00605702
1.00124e-06
0.0533571
0.10615
0.0132473
0.113825
0.01882
8.81174e-05
0.00067355
0.109533
0.00739517
0.000486328
0.0112811
3.23197e-05
5.54479e-05
0.0067197
4.5068e-07
0.00312957
2.31861e-05
0.0011003
9.64118e-07
0.0726747
0.00113722
5.37598e-06
2.28691e-06
0.00125995
0.00921033
0
0.0553455
1.10717e-09
2.48046e-10
9.67338e-10
0.000582281
3.66548e-10
0.00175887
1.14345e-05
0.000870367
0.0687809
4.78475e-06
0.00679302
0.00174203
2.0103e-06
5.47057e-09
3.97857e-10
1.40463e-08
0.000472612
0
0
0
2.24666e-07
0.069985
1.64579e-05
0.109421
0.0321383
0.0505793
2.66004e-06
3.57301e-07
0.0364017
0.00518384
4.51191e-07
0.0678965
0.0562803
2.78197e-06
1.62944e-07
5.26012e-10
1.90937e-07
2.36557e-06
0.00118052
0.0271496
0.0615056
0.0359328
1.16968e-07
1.0114e-07
1.2132e-07
1.35047e-07
0.00705478
0.0626259
0.00261092
0
0.00832452
0.0772515
0
8.03596e-05
0.0568266
3.3599e-08
0.0760003
0.00456623
0.00378677
0
4.77503e-08
4.26101e-05
0.00707757
0
0.00758439
3.16542e-09
0.0249838
1.79116e-05
0.000381862
0.00759621
0
2.59238e-09
5.95948e-08
0.000128176
0.00853411
2.21409e-05
3.06659e-09
0.00705824
0.0152197
2.0731e-08
4.31416e-06
0.00571394
0.00735406
9.87575e-06
4.47076e-10
0.000182598
0.00548892
0
6.96068e-05
0
8.4895e-08
9.5023e-08
0
5.26238e-07
0
0.000380983
0.0107766
0.00555271
0
0.00255424
1.7161e-08
0.000124908
0.00342169
1.32902e-06
6.78893e-08
0.085927
4.16973e-05
5.48349e-09
0.00303948
5.77746e-10
0.025502
6.10031e-05
0.00030904
0.0236971
1.87133e-07
0.00628621
1.96932e-07
0.0136908
0.000181637
2.54618e-08
4.46445e-09
0.0271054
2.90782e-10
2.57734e-08
1.32087e-09
0.0214483
0
0.0376282
3.40668e-07
0.000665264
0.00114254
7.5377e-07
2.1443e-07
2.31447e-09
6.25623e-08
0.00181051
1.50234e-06
0.0558399
0.0367329
7.98917e-06
0.000631515
5.24068e-07
0.000937928
0.00131735
0.0271835
0.000327359
0.0007911
4.13857e-07
0.0144216
0.00162115
0.000233269
0.028561
0.000328121
0
0.00233097
0.0325443
0
0.000475892
1.54281e-08
0.0479859
0.00401147
0
3.68492e-07
0.0295166
0.033429
2.4407e-07
5.98058e-07
0.000116442
0.000476963
0
0.0220903
0.000153686
0.000613366
2.31185e-07
1.22975e-06
0
7.56685e-06
0.00375744
0
0.000222498
0
0.0503461
0.00631514
4.91913e-09
0.000460627
0
0.00626126
0.0036784
0.0170112
0.00465393
0.00633425
0
2.94045e-07
4.18911e-05
2.47191e-05
1.39522e-10
0
2.40299e-09
2.02591e-08
3.03316e-07
0.0367742
0
1.13886e-08
0.026575
0.0203969
6.59183e-09
0.0408581
0.000586717
0.0339098
0.0318878
0.00500459
0.0307376
0.00614979
0.134583
0.000296492
0.0252233
1.77457e-08
0.110631
2.29435e-06
7.79297e-09
0.0126355
7.16362e-06
1.1046e-05
0.00764039
1.09494e-07
0.00551224
4.13319e-06
6.93607e-06
5.09313e-10
4.59771e-08
0.0204812
0.0447553
1.40589e-06
0.0046968
0.00927132
0.000560705
0
0.0528898
0.000239055
0
0.00815485
0.00372789
0.0174304
0.00238054
0.00239836
0.00166439
1.90337e-08
0.0169828
4.27002e-08
1.79878e-08
6.76163e-05
0.000741584
0
0.135643
2.03455e-05
0.000626402
0.00011541
0
0.00494229
0.00188289
0
0
3.46628e-05
0
5.74911e-09
1.48522e-09
0.0168888
7.24313e-05
0.00140099
0
0
0.000854798
0
0
0.00552072
0
0.00410247
0
0
2.85713e-07
0.000634812
0.00104357
6.3885e-07
0
0
0.00547963
0.00574397
2.21785e-05
0.00838623
0.012167
3.28518e-05
0
2.60811e-09
0.000884014
0.000375006
0
0
1.76361e-10
0.00125309
1.49652e-05
1.3992e-06
6.79254e-06
0
3.51499e-09
0
3.9093e-10
0
0.000517437
7.31108e-06
0
1.12964e-05
0.00803662
2.61397e-05
2.45205e-05
0.0430969
0.0355478
2.23607e-05
0
0.000125298
0
0.0363283
0
5.2405e-06
0.00706276
1.25012e-05
1.72408e-08
0.0231247
7.85159e-08
0
0.00513293
1.89609e-05
0.0403988
0.00043661
0.0302803
0.027374
2.83543e-05
3.39993e-07
8.79232e-07
0.0420732
0.0430143
0.000337196
1.28407e-07
0.00153364
1.20035e-06
0
0
3.41292e-08
5.17696e-05
0.0108011
0.0117619
9.60273e-05
0.0018967
4.55544e-07
0
0.0965024
0.0218637
0.00770551
0
0.0278991
5.08786e-05
0.118466
1.74611e-08
0.00944408
0.000908238
0.0842159
0.00309616
0
0.00363657
6.28266e-07
0.0805578
0.00534165
0.0123712
0.00244004
1.46219e-08
8.73346e-09
0
2.70851e-06
0.00292141
5.54862e-05
8.28068e-06
5.46685e-09
0
0.00467658
9.45843e-08
0.0156583
0.0527152
0.0477387
0.0484656
0.0743954
6.48084e-06
0
0.112168
0.0706696
0
6.96536e-07
0.00309361
0.00469474
1.53842e-06
1.37794e-09
0.0798215
7.61912e-05
0.00819403
1.64391e-08
0.0261755
2.81322e-09
3.88775e-09
6.58407e-06
0.0783263
0
0.0747227
0.00640837
2.77832e-05
0.082489
0.00187558
0.00423165
0
0.0967672
0.0356147
0.0320837
0.00501586
0.0551654
0.00917704
0.000460979
0.0769945
0.0354415
8.7795e-10
0.101365
1.29749e-08
3.28372e-05
0.0783355
0.0476068
5.11091e-07
0.0867634
0.108658
2.26223e-05
0.0100443
0.0103568
3.12348e-05
0.0885479
0.014674
0.00019078
0.00106091
0.0263464
0.116236
0
0.0314332
2.55657e-08
5.75951e-06
1.60063e-09
0.00363355
4.51739e-06
0.0186524
4.45237e-08
0.0149399
0
0.002866
0.0327955
0.000694336
0.000427882
0.0291466
0.000411444
0.00966321
0.00653421
0
0.0845098
0.00847727
0.00536702
3.74014e-05
0.00518903
0.0082055
6.60454e-10
0.107236
0.00420915
1.3035e-06
5.10257e-05
0.009082
0
0.00374159
6.65224e-07
0.00430405
0.0294593
3.89545e-05
0.000438332
7.53165e-07
1.83533e-06
0.00731994
0.00878708
0.135549
1.56699e-08
0.0148195
0.00740783
0.0269941
0.114951
0.000295892
0.105453
1.27958e-06
4.58983e-07
0.00680905
1.01216e-05
0.00438087
1.7776e-06
0.0783357
1.41898e-09
5.52004e-05
0.0878169
0.0143959
0
0.00376107
0.00319706
0.0128578
0.0242258
0
0.00063024
7.21413e-06
0.0135717
8.70524e-09
0.012965
3.79074e-05
6.92067e-08
0.000166385
0.000347727
1.53631e-07
0.104676
7.57559e-08
4.02843e-05
0.0128482
6.43072e-09
0.00569141
0.109607
0.00205825
7.48485e-09
4.83108e-05
0.125601
8.96106e-08
0.0249253
8.45649e-08
1.10141e-07
0.0102502
0.0261562
5.31135e-05
0.00360536
0
0
2.13493e-06
0.000161513
0.00506047
0
0.00309217
0.00449499
4.48455e-06
6.16957e-10
3.37611e-07
5.35287e-06
7.8024e-07
0.0438328
2.21412e-07
0.115021
7.73945e-08
6.60495e-08
0
3.10906e-07
0
0
0.00124746
0.0415739
1.33569e-06
0
0.0673084
5.97664e-06
5.16351e-07
5.63434e-06
0
0.0122691
0.053171
1.73419e-05
0.0057724
0.075236
1.69929e-06
2.67906e-06
1.87399e-10
0.00105458
1.13322e-07
5.14843e-08
0.000369198
0.0288411
2.0702e-06
0.00540693
8.25652e-07
0.002863
0.0150876
0.105175
0
0.00168408
0.114017
0.0111304
0.00973724
2.55729e-05
0.120663
0.0631219
0.00870411
0.00110769
0.0590518
2.34524e-06
4.90764e-06
0.000636732
9.98066e-05
0.00800255
9.20844e-09
0.000231183
0.0118933
0.000431016
0.0144032
1.35285e-08
5.95986e-09
0.000407364
0.0241332
0.000231553
8.70381e-05
0.0179963
0.00556585
0.126316
0.0377675
4.70224e-05
0.00707675
0.0968328
0.0994845
0.00260698
0
0.0130894
2.82e-05
0.0105278
0
0.00497061
4.93075e-07
0.090689
2.34561e-06
0.0037478
1.09768e-06
0
0.00207169
2.52748e-07
0.00236474
0.095289
2.0767e-07
4.11414e-05
7.34657e-07
0.04417
6.61069e-06
4.53264e-09
8.49434e-08
0.00445625
0.0397871
0.0437814
0.0355526
0.00349364
1.56469e-06
0.0726566
0.0241056
0.123372
0.034234
0.0223199
1.00311e-08
8.43051e-05
0.0081415
0.0149847
0.000580536
0.0189624
0.0390353
0.114533
1.59251e-10
8.92544e-09
0.0136772
4.48386e-05
2.82658e-05
0.00987103
0.0120219
3.0734e-07
0.00080124
0.115861
0.11956
0.0255611
0.0295583
2.17653e-08
0.123157
9.2689e-07
0.0305577
2.42127e-08
0.119627
4.3182e-09
0.00612796
2.32605e-09
0.0704144
0.0024329
2.82249e-05
2.30849e-06
0.00205096
0.00250845
2.19916e-05
0.00164756
2.11509e-09
0.0236883
1.57442e-05
0
1.03494e-09
0.0605403
0.000990295
4.18005e-10
0.021706
6.09015e-08
0
0
0.00922038
4.07163e-09
0
0.000925908
0.00179284
3.36549e-07
0.00136725
1.03872e-06
0
8.15336e-06
4.66849e-07
7.22714e-07
0.00175392
1.47144e-07
0.0298398
1.65797e-07
0
0
0.00367327
2.79589e-05
1.80726e-07
4.627e-08
0.0208106
0
0.00394525
0
0.014899
0.00418094
5.28662e-08
0.013315
0.000525235
0
0
0.00127737
0.124168
4.41358e-08
0.00652536
7.68701e-06
0
0.00137578
0.0345555
0.0014119
0.0384399
0.00150242
0.010244
6.54323e-05
0.0334017
0.00119883
3.49576e-09
3.80284e-08
8.18386e-07
0.0714959
4.06424e-06
6.84405e-07
0.0649052
3.06404e-08
0.0460739
0.0199917
0.101554
0.000260671
1.10093e-10
1.9954e-09
0.00630243
0.00389115
0
1.79356e-05
2.20227e-05
0.0364729
0.0335291
0.00133681
0.00307544
0.00684583
1.84681e-05
0.000156078
0
0
0.030655
0
0.00306622
0.00398043
8.61705e-08
1.31697e-09
0.00259714
0.0899799
0.0214182
4.40721e-08
7.14411e-08
5.70424e-08
6.6232e-08
0.000287032
3.78733e-08
0.000276416
4.62471e-05
0.10923
3.29485e-09
0.0284357
4.81106e-08
0.000394758
6.20939e-08
5.73015e-09
7.01479e-08
0.12018
0.0438854
7.84075e-08
0.00027029
2.39307e-07
0.000205873
0.0376674
3.31301e-08
3.21748e-07
0.00157288
0.00208978
1.59759e-05
0.00119797
3.4709e-08
0.0166233
0.000459563
0.00321525
6.22735e-07
2.84716e-07
0.00190752
0.0427483
7.4423e-07
0
0
2.00304e-07
3.38391e-06
5.30186e-07
0.00260634
0.0353867
0.031516
5.18145e-10
0.00323548
0.000311677
0.000280685
0.078566
0
0.00115263
0
0.00279161
0.0317334
2.20902e-07
0
4.75266e-08
3.27655e-09
0.0313321
0.0291038
0.000611341
0
0
0.00121235
8.7547e-07
1.09897e-06
0.0472028
0.00411031
0.00195286
0
1.65694e-07
0.000635723
4.86791e-05
0.106847
0.0421592
0.109355
1.22681e-10
7.08539e-10
9.53724e-10
2.70205e-10
5.89732e-08
3.70355e-10
0.000215307
0.000219667
0.00570925
0.0901137
0.00744767
0.00396647
2.28165e-06
0
4.40261e-06
4.22636e-05
1.04484e-06
2.28983e-07
0.00691366
1.55424e-08
0.000466651
0.000689997
0.00867443
2.72152e-05
0.000581066
0.0439567
0
0
1.94847e-08
0.0276683
0.030945
1.14634e-07
7.98209e-09
0.0268798
3.65405e-09
0.0252339
0.0547303
0.0279177
0.0285614
0
2.50428e-08
0.0121396
0.00143799
2.99402e-05
0.00487473
1.00763e-09
0
0.00398409
7.59022e-06
1.08257e-05
7.92925e-06
0.0274763
1.21426e-10
0.0269049
0.032837
1.57851e-06
0
0
7.8285e-05
2.38526e-08
0