# vtk DataFile Version 2.0
Unstructured Grid by M++
ASCII
DATASET UNSTRUCTURED_GRID
POINTS 4072 float
  0.609375   0.843750 0
  0.562500   0.843750 0
  0.531250   0.843750 0
  0.875000   0.828125 0
  0.984375   0.828125 0
  0.953125   0.828125 0
  0.937500   0.828125 0
  0.843750   0.828125 0
  0.812500   0.828125 0
  0.781250   0.828125 0
  0.765625   0.828125 0
  0.734375   0.828125 0
  0.703125   0.828125 0
  0.671875   0.828125 0
  0.640625   0.828125 0
  0.609375   0.828125 0
  0.593750   0.828125 0
  0.562500   0.828125 0
  0.546875   0.828125 0
  0.531250   0.828125 0
  0.515625   0.828125 0
  0.968750   0.812500 0
  0.937500   0.812500 0
  0.921875   0.812500 0
  0.890625   0.812500 0
  0.859375   0.812500 0
  0.828125   0.812500 0
  0.796875   0.812500 0
  0.765625   0.812500 0
  0.750000   0.812500 0
  0.718750   0.812500 0
  0.687500   0.812500 0
  0.656250   0.812500 0
  0.625000   0.812500 0
  0.593750   0.812500 0
  0.578125   0.812500 0
  0.546875   0.812500 0
  0.531250   0.812500 0
  0.515625   0.812500 0
  0.984375   0.796875 0
  0.562500   0.015625 0
  0.953125   0.796875 0
  0.921875   0.796875 0
  0.906250   0.796875 0
  0.875000   0.796875 0
  0.843750   0.796875 0
  0.812500   0.796875 0
  0.781250   0.796875 0
  0.750000   0.796875 0
  0.734375   0.796875 0
  0.703125   0.796875 0
  0.671875   0.796875 0
  0.640625   0.796875 0
  0.609375   0.796875 0
  0.578125   0.796875 0
  0.562500   0.796875 0
  0.531250   0.796875 0
  0.515625   0.796875 0
  0.968750   0.781250 0
  0.546875   0.000000 0
  0.937500   0.781250 0
  0.906250   0.781250 0
  0.890625   0.781250 0
  0.859375   0.781250 0
  0.828125   0.781250 0
  0.796875   0.781250 0
  0.765625   0.781250 0
  0.734375   0.781250 0
  0.718750   0.781250 0
  0.687500   0.781250 0
  0.656250   0.781250 0
  0.625000   0.781250 0
  0.593750   0.781250 0
  0.562500   0.781250 0
  0.546875   0.781250 0
  0.515625   0.781250 0
  0.984375   0.765625 0
  0.953125   0.765625 0
  0.921875   0.765625 0
  0.890625   0.765625 0
  0.875000   0.765625 0
  0.843750   0.765625 0
  0.812500   0.765625 0
  0.781250   0.765625 0
  0.750000   0.765625 0
  0.718750   0.765625 0
  0.703125   0.765625 0
  0.671875   0.765625 0
  0.640625   0.765625 0
  0.609375   0.765625 0
  0.578125   0.765625 0
  0.593750   0.750000 0
  0.562500   0.765625 0
  0.546875   0.765625 0
  0.531250   0.765625 0
  0.562500   0.750000 0
  0.968750   0.750000 0
  0.937500   0.750000 0
  0.906250   0.750000 0
  0.875000   0.750000 0
  0.859375   0.750000 0
  0.828125   0.750000 0
  0.796875   0.750000 0
  0.765625   0.750000 0
  0.734375   0.750000 0
  0.703125   0.750000 0
  0.687500   0.750000 0
  0.671875   0.750000 0
  0.656250   0.750000 0
  0.625000   0.750000 0
  0.546875   0.750000 0
  0.531250   0.750000 0
  0.515625   0.750000 0
  0.562500   0.734375 0
  0.984375   0.734375 0
  0.953125   0.734375 0
  0.921875   0.734375 0
  0.890625   0.734375 0
  0.859375   0.734375 0
  0.843750   0.734375 0
  0.812500   0.734375 0
  0.781250   0.734375 0
  0.750000   0.734375 0
  0.718750   0.734375 0
  0.687500   0.734375 0
  0.671875   0.734375 0
  0.656250   0.734375 0
  0.640625   0.734375 0
  0.546875   0.734375 0
  0.531250   0.734375 0
  0.515625   0.734375 0
  0.562500   0.718750 0
  0.968750   0.718750 0
  0.937500   0.718750 0
  0.906250   0.718750 0
  0.875000   0.718750 0
  0.843750   0.718750 0
  0.796875   0.718750 0
  0.765625   0.718750 0
  0.734375   0.718750 0
  0.703125   0.718750 0
  0.687500   0.718750 0
  0.671875   0.718750 0
  0.656250   0.718750 0
  0.625000   0.718750 0
  0.546875   0.718750 0
  0.531250   0.718750 0
  0.515625   0.718750 0
  0.562500   0.703125 0
  0.953125   0.703125 0
  0.921875   0.703125 0
  0.890625   0.703125 0
  0.859375   0.703125 0
  0.828125   0.703125 0
  0.781250   0.703125 0
  0.750000   0.703125 0
  0.718750   0.703125 0
  0.687500   0.703125 0
  0.656250   0.703125 0
  0.546875   0.703125 0
  0.531250   0.703125 0
  0.515625   0.703125 0
  0.984375   0.687500 0
  0.937500   0.687500 0
  0.921875   0.687500 0
  0.906250   0.687500 0
  0.875000   0.687500 0
  0.843750   0.687500 0
  0.812500   0.687500 0
  0.765625   0.687500 0
  0.734375   0.687500 0
  0.703125   0.687500 0
  0.671875   0.687500 0
  0.640625   0.687500 0
  0.593750   0.687500 0
  0.562500   0.687500 0
  0.546875   0.687500 0
  0.531250   0.687500 0
  0.515625   0.687500 0
  0.968750   0.671875 0
  0.937500   0.671875 0
  0.921875   0.671875 0
  0.906250   0.671875 0
  0.890625   0.671875 0
  0.859375   0.671875 0
  0.828125   0.671875 0
  0.796875   0.671875 0
  0.765625   0.671875 0
  0.750000   0.671875 0
  0.718750   0.671875 0
  0.687500   0.671875 0
  0.656250   0.671875 0
  0.625000   0.671875 0
  0.593750   0.671875 0
  0.578125   0.671875 0
  0.546875   0.671875 0
  0.531250   0.671875 0
  0.515625   0.671875 0
  0.984375   0.656250 0
  0.953125   0.656250 0
  0.937500   0.656250 0
  0.921875   0.656250 0
  0.906250   0.656250 0
  0.875000   0.656250 0
  0.843750   0.656250 0
  0.812500   0.656250 0
  0.781250   0.656250 0
  0.750000   0.656250 0
  0.734375   0.656250 0
  0.703125   0.656250 0
  0.671875   0.656250 0
  0.640625   0.656250 0
  0.609375   0.656250 0
  0.578125   0.656250 0
  0.562500   0.656250 0
  0.531250   0.656250 0
  0.515625   0.656250 0
  0.968750   0.640625 0
  0.937500   0.640625 0
  0.906250   0.640625 0
  0.890625   0.640625 0
  0.859375   0.640625 0
  0.828125   0.640625 0
  0.796875   0.640625 0
  0.765625   0.640625 0
  0.734375   0.640625 0
  0.718750   0.640625 0
  0.687500   0.640625 0
  0.656250   0.640625 0
  0.625000   0.640625 0
  0.593750   0.640625 0
  0.562500   0.640625 0
  0.546875   0.640625 0
  0.515625   0.640625 0
  0.984375   0.625000 0
  0.953125   0.625000 0
  0.921875   0.625000 0
  0.890625   0.625000 0
  0.875000   0.625000 0
  0.843750   0.625000 0
  0.812500   0.625000 0
  0.781250   0.625000 0
  0.750000   0.625000 0
  0.734375   0.625000 0
  0.718750   0.625000 0
  0.703125   0.625000 0
  0.671875   0.625000 0
  0.640625   0.625000 0
  0.609375   0.625000 0
  0.578125   0.625000 0
  0.562500   0.625000 0
  0.546875   0.625000 0
  0.531250   0.625000 0
  0.968750   0.609375 0
  0.937500   0.609375 0
  0.906250   0.609375 0
  0.875000   0.609375 0
  0.859375   0.609375 0
  0.828125   0.609375 0
  0.796875   0.609375 0
  0.765625   0.609375 0
  0.750000   0.609375 0
  0.734375   0.609375 0
  0.718750   0.609375 0
  0.703125   0.609375 0
  0.687500   0.609375 0
  0.656250   0.609375 0
  0.625000   0.609375 0
  0.593750   0.609375 0
  0.562500   0.609375 0
  0.546875   0.609375 0
  0.531250   0.609375 0
  0.515625   0.609375 0
  0.984375   0.593750 0
  0.953125   0.593750 0
  0.921875   0.593750 0
  0.890625   0.593750 0
  0.859375   0.593750 0
  0.843750   0.593750 0
  0.812500   0.593750 0
  0.781250   0.593750 0
  0.750000   0.593750 0
  0.734375   0.593750 0
  0.718750   0.593750 0
  0.687500   0.593750 0
  0.671875   0.593750 0
  0.640625   0.593750 0
  0.609375   0.593750 0
  0.578125   0.593750 0
  0.562500   0.593750 0
  0.546875   0.593750 0
  0.531250   0.593750 0
  0.515625   0.593750 0
  0.968750   0.578125 0
  0.937500   0.578125 0
  0.906250   0.578125 0
  0.875000   0.578125 0
  0.890625   0.562500 0
  0.843750   0.578125 0
  0.828125   0.578125 0
  0.796875   0.578125 0
  0.765625   0.578125 0
  0.734375   0.578125 0
  0.703125   0.578125 0
  0.671875   0.578125 0
  0.656250   0.578125 0
  0.656250   0.562500 0
  0.625000   0.578125 0
  0.640625   0.562500 0
  0.593750   0.578125 0
  0.562500   0.578125 0
  0.546875   0.578125 0
  0.531250   0.578125 0
  0.515625   0.578125 0
  0.859375   0.562500 0
  0.828125   0.562500 0
  0.781250   0.562500 0
  0.750000   0.562500 0
  0.718750   0.562500 0
  0.687500   0.562500 0
  0.609375   0.562500 0
  0.578125   0.562500 0
  0.562500   0.562500 0
  0.546875   0.562500 0
  0.531250   0.562500 0
  0.515625   0.562500 0
  1.000000   0.812500 0
  0.578125   0.031250 0
  0.875000   0.546875 0
  0.625000   0.546875 0
  0.218750   0.000000 0
  0.640625   0.781250 0
  0.828125   0.093750 0
  0.031250   0.531250 0
  0.296875   0.328125 0
  0.296875   0.312500 0
  0.281250   0.312500 0
  0.765625   0.312500 0
  0.031250   0.859375 0
  0.093750   0.265625 0
  0.109375   0.250000 0
  0.187500   0.671875 0
  0.421875   0.640625 0
  0.031250   0.062500 0
  0.140625   0.125000 0
  0.562500   0.906250 0
  0.125000   0.437500 0
  0.203125   0.937500 0
  0.125000   0.421875 0
  0.140625   0.406250 0
  0.093750   0.437500 0
  0.109375   0.421875 0
  0.093750   0.421875 0
  0.109375   0.406250 0
  0.328125   0.125000 0
  0.750000   0.906250 0
  0.328125   0.109375 0
  0.750000   0.890625 0
  0.312500   0.125000 0
  0.734375   0.906250 0
  0.281250   0.343750 0
  0.265625   0.359375 0
  0.500000   0.796875 0
  0.078125   0.015625 0
  0.062500   0.015625 0
  0.484375   0.796875 0
  0.484375   0.781250 0
  0.062500   0.000000 0
  0.015625   0.250000 0
  0.062500   0.046875 0
  0.484375   0.828125 0
  0.484375   0.812500 0
  0.062500   0.031250 0
  0.281250   0.671875 0
  0.062500   0.234375 0
  0.328125   0.765625 0
  0.312500   0.750000 0
  0.015625   0.671875 0
  0.781250   0.187500 0
  0.015625   0.265625 0
  0.453125   0.250000 0
  0.453125   0.234375 0
  0.031250   0.265625 0
  0.046875   0.250000 0
  0.093750   0.015625 0
  0.265625   0.656250 0
  0.734375   0.281250 0
  0.156250   0.015625 0
  0.062500   0.265625 0
  0.046875   0.281250 0
  0.031250   0.281250 0
  0.343750   0.781250 0
  0.328125   0.781250 0
  0.265625   0.687500 0
  0.265625   0.703125 0
  0.156250   0.109375 0
  0.578125   0.890625 0
  0.484375   0.984375 0
  0.062500   0.203125 0
  0.328125   0.718750 0
  0.343750   0.734375 0
  0.343750   0.750000 0
  0.453125   0.500000 0
  0.437500   0.500000 0
  0.234375   0.093750 0
  0.171875   0.375000 0
  0.437500   0.531250 0
  0.468750   0.546875 0
  0.453125   0.546875 0
  0.187500   0.015625 0
  0.187500   0.000000 0
  0.609375   0.781250 0
[...]
CELL_DATA 7648
SCALARS scalar_value float 1
LOOKUP_TABLE default
0.000361047
0.000394742
0.000468829
0.000350525
0.0524186
0.0552155
0.0603083
0.0547038
0.000375291
0.000448096
0.00048214
0.0234755
0.0255095
0.0200288
6.77531e-05
5.81838e-05
6.19171e-05
4.57945e-05
1.51997e-07
1.47138e-07
1.80594e-07
1.25309e-07
8.01045e-08
1.27572e-08
1.40752e-08
2.05646e-08
1.11018e-08
0.00132289
0.00143693
2.51811e-09
3.18722e-09
4.2822e-09
2.55588e-09
7.14992e-09
9.03705e-09
1.1787e-08
7.69711e-09
2.83121e-09
3.80053e-09
5.05616e-09
6.46891e-10
1.44473e-09
0.000601957
0.000843907
0.00087003
0.00976566
0.011413
0.0134012
1.45641e-08
0.0144324
0.0459736
1.83674e-07
1.89206e-08
2.53046e-08
0.000502356
1.86795e-08
0.000666443
0.00038865
4.63243e-09
6.80799e-09
9.99158e-09
6.12203e-08
4.56349e-08
0.000875403
0.000713673
0
0
1.38913e-08
1.79055e-05
0
6.62338e-06
0
5.47058e-05
0.000104636
0.000874995
0
0.00085372
0
0.000859577
0.000207781
0.000284197
0
0
0
0.0212232
9.88696e-09
4.14146e-06
3.73768e-06
0.00145456
0
4.60988e-10
0
2.44247e-07
3.42971e-07
0
8.84121e-09
0.00131569
1.45493e-08
0.00167954
0.00210507
0.000148573
5.78278e-08
0.000166989
0.000309908
1.28706e-07
5.79716e-06
5.19019e-05
0.0191828
0.0187111
2.34812e-10
6.89915e-09
5.07259e-05
5.05618e-05
0
4.10701e-07
0
5.40007e-07
2.90527e-07
1.0527e-08
0.0470055
0.0496273
0
0
8.17767e-07
0
0
0
0.00509173
0.00635774
0.00424126
0
0.00298386
0
0.0122348
1.38874e-05
0.0119262
0.00113714
3.23626e-08
6.4112e-09
0.00878171
0.00110868
0.00998064
0.0109169
2.76544e-09
0.0107809
0.0110694
0.0513077
2.04519e-07
0.0477479
0.000951736
0.000907629
2.56191e-08
3.36937e-08
4.33029e-08
0.0104989
0.00840366
0.0296281
4.14142e-09
0.0179757
2.44915e-08
0
1.65143e-07
1.93243e-07
3.91602e-05
0.0104635
0.0126648
3.22215e-09
0.0091058
5.06173e-08
0.0969402
0
0.0107888
0.0137023
0.00463285
4.25696e-05
7.1142e-07
0.0592907
0.00514644
1.39308e-05
0.00608326
0.00746143
1.95435e-05
0.0242322
0.00114083
0
3.10216e-07
0.0486013
0
0
0.00174183
0
0.00206315
0.00256398
0
1.08878e-09
0.00293669
0.00349783
0.00294606
0
0
0
0.0232228
3.86368e-07
0.0548308
0.0523071
3.5818e-07
3.28901e-08
0.0135308
0.0155638
0.0123959
2.45142e-09
3.87348e-09
5.76359e-09
3.48149e-09
0.00777465
6.28812e-07
0
0.116211
0
0.000395176
0.00087148
0.00882418
0.0105645
1.18339e-09
0.00858022
2.6328e-10
0.000118804
0.000325702
0.00689018
0.0056944
0.0625726
0.0534724
0.00345904
6.17762e-06
0.069409
0.073515
0.0772348
0.0746964
0.00244157
0
0.00209212
0.00838127
5.47311e-06
0.000986759
0.00113167
0.00694716
2.03282e-05
0.00616605
0.00736477
1.55121e-10
0.00589134
0.000522668
3.22749e-08
4.38155e-08
4.26754e-08
0.000884398
2.56255e-06
0.00196571
0.00234393
1.18208e-07
1.47346e-07
1.46353e-07
0.00450844
3.29418e-09
9.58315e-10
0.00610396
3.07498e-09
0.0112531
2.21371e-09
0.00420501
0.0264751
1.33744e-07
0
0.042057
0.00753511
5.05047e-10
0.108983
0.0020888
3.38425e-06
4.1999e-06
5.27221e-10
0.000630346
0.00137148
0.0126537
8.31299e-06
0.00518811
0.0131127
6.39792e-10
3.06935e-10
0.00329994
5.16226e-10
0.0143952
0.000185918
0
4.35673e-06
4.4148e-06
0
5.48527e-06
0
0.000687392
2.90777e-07
1.22962e-05
0.0260949
0.00109922
8.12785e-08
6.60796e-08
5.92687e-08
4.8234e-07
0.00220368
1.46639e-06
1.05524e-06
0.0038126
0.0179539
0
0.00307414
0.0001321
5.31684e-07
0.00275638
4.13123e-07
7.85768e-05
2.93882e-07
5.51908e-08
0.000468189
0.00151288
0.00296588
2.88608e-06
5.84114e-07
0.00153465
0.00215932
1.30659e-06
0.00193999
2.32991e-08
0.0106738
0.000288881
0.0299132
0.000264028
0.0291582
0.0364692
0.0322614
1.64035e-07
0.000764078
0.0475972
0.043619
0
0.0367483
0.000128098
0.000181586
0.0191582
1.91427e-10
0
0
0
1.61258e-07
0.00424662
0
0.00352001
2.49428e-10
0.0489972
0.0440008
0.0433091
3.90042e-06
3.09398e-06
3.26988e-06
2.502e-05
0.00218054
0.00278687
0.00243938
0
0
0
0.00218061
1.94484e-05
2.35334e-10
0.00366738
1.41904e-10
0.00567805
0.00562937
0
0.000101658
6.59605e-08
3.18222e-06
0.00445668
5.47761e-06
0.00013167
0.00818721
4.1435e-05
0.00853761
1.17865e-05
1.02416e-09
0.0151169
0.013417
4.32278e-05
0.022877
0.0209198
0.0196626
1.90351e-08
1.87772e-08
0.0393269
0.00315293
5.64302e-05
4.78258e-09
0.0204989
0.00203127
6.66467e-05
0.00263416
3.50588e-05
5.21365e-10
0.00187225
0.0270951
1.41728e-08
0.0125334
0.00145295
0.000893487
0.00647937
1.32527e-05
0.000252113
0
0.000246876
1.39209e-10
1.32752e-05
0.00148143
2.18498e-05
0.0141432
5.53858e-08
1.2928e-07
1.14519e-07
0.0503852
1.17235e-07
0.00185171
6.33968e-09
0.00161877
4.11011e-07
4.81855e-09
0
5.33708e-09
3.08808e-09
1.13293e-09
0
0.0359982
0.00123286
9.74885e-07
0.000895835
8.81471e-08
9.36005e-08
0.00341328
1.25922e-07
0.00343813
0.00288748
0.000897483
0.00134526
0.0582686
5.13076e-07
4.50573e-09
3.68173e-07
0.00103853
6.75363e-09
8.70799e-09
7.41287e-09
0.0007002
0.00316579
0.0296562
2.8441e-07
0.00054581
0.000467275
0
3.42633e-09
2.81607e-09
0
0
0
0.00489708
0
4.38871e-06
0
0
4.23579e-06
6.52086e-08
0.000261105
0
0.00138328
0
2.34745e-06
0
0
0.00245606
0.00318881
0.00405824
0.00221499
6.53815e-07
1.0483e-06
0
6.55903e-07
0
3.38782e-06
0.000688627
0
3.9106e-07
0.0415396
0.000158901
4.24897e-09
3.17291e-09
0.00271641
4.52093e-05
4.50052e-09
3.33861e-09
0.0144805
1.02744e-08
8e-09
7.59004e-09
5.99863e-09
0.0420453
0.000968302
8.91683e-09
0
0.00127561
1.80079e-09
0.00489046
7.71239e-09
1.74957e-09
0.00567723
6.15109e-09
0.0118986
4.11746e-09
6.89968e-09
0.0013592
2.13934e-05
0.103669
0.00727572
2.16135e-05
1.53471e-05
0.00578576
1.31285e-09
0.0245454
1.81961e-09
4.18858e-05
0.0493054
6.97993e-05
0.0406615
3.2877e-05
0.000103778
4.68506e-05
0.000121991
3.405e-09
3.64417e-09
0.0281917
1.4654e-05
0.00440269
1.60759e-05
0.00118637
2.02243e-05
1.47996e-05
0.0949449
2.34374e-05
2.0031e-05
0.000128225
0.000134649
0.000180225
0.0164523
1.14687e-08
5.57545e-09
0.0151296
1.05969e-09
3.60813e-10
1.80326e-09
0.000363446
1.41616e-05
1.46684e-07
0.000416924
0.00036376
0.000576232
7.12125e-08
0.00165857
1.69431e-05
0.00594472
1.76635e-09
9.80248e-06
0.0330011
8.31219e-10
0.00397679
1.95991e-07
8.23491e-05
7.95384e-05
4.51434e-10
7.27007e-10
0.00170663
2.84156e-10
0.000160343
0.00950536
7.35111e-10
0.0208582
0.0244206
0
4.23186e-09
4.34123e-09
0.0835792
9.28869e-09
2.53147e-05
0.00315257
2.56263e-09
0.00512024
3.75847e-09
2.43025e-09
1.64368e-09
1.57386e-09
0.00312241
0.00785212
1.93234e-09
0.0250811
1.71864e-05
0.0741257
0.0736946
0.0758843
0.00434825
0.00383451
0.00414262
1.22104e-07
0.0118926
1.01786e-07
5.34691e-09
1.38418e-09
0.00406473
2.07662e-09
2.63716e-09
2.83734e-09
0.0123188
3.60655e-09
2.39257e-09
9.63796e-10
1.39107e-09
1.45907e-09
2.29639e-09
0.00238618
7.61256e-10
9.54193e-10
0.0838435
2.90775e-06
0.0915114
0.00326769
3.08672e-05
2.66578e-05
0.021339
0.0158857
9.05523e-05
0.0619301
0.0037915
0.00783607
0.0159408
0
1.07254e-10
0
4.00715e-06
0.00538099
0.00620899
2.74422e-10
0
7.70444e-06
4.34535e-10
5.99194e-06
2.07205e-05
3.96402e-06
0.000626049
0.00104776
3.01866e-06
3.74068e-09
4.98602e-08
0.0315874
3.91859e-09
5.66684e-08
0
0
0
1.9055e-08
0.0546006
5.58803e-09
0.0497324
3.91717e-07
0.000163267
0.000176235
0.000232122
0.0157304
0.0166476
0.0171067
0.000593793
0
6.28817e-05
0.0102253
0.020437
0.00955724
7.56196e-10
0.00485848
0.0110514
0.012336
2.01509e-09
9.83362e-05
0.0115494
0.0146776
0.000152418
7.68067e-08
0.0157513
0.00429795
0.00348598
0.00304866
0.00161175
3.44274e-06
0.00104483
1.52624e-06
0.000757875
0.000953876
0.0334383
0.0374464
0.0633504
0.0678294
0.0708091
0.00217156
0.00144663
0.0503997
0.0549768
4.0847e-07
2.5229e-06
0.0538443
0.0595018
0.000882209
0.00095633
0.000800772
0.0396481
0.0437292
0.00521353
0.0481398
0.000453212
0.000533504
0.000655464
0.030005
0.0334519
0.0372914
3.82163e-08
2.33225e-08
7.42689e-05
0.0248453
0.0240007
0.0279814
0.00234669
0.0266124
0.032277
0.0308771
1.19346e-08
0.000227564
3.71084e-06
0.000299577
0.00050932
6.33917e-08
0.0176403
0.0204568
0.0233867
8.24558e-10
2.00515e-09
1.13092e-09
1.30351e-09
0.000272099
0.000195572
1.23912e-10
0.00361679
1.16304e-06
0
1.38668e-10
1.171e-05
3.92688e-10
0.00635195
0.0330056
1.70125e-05
7.77032e-06
8.49038e-06
6.61201e-06
1.18527e-05
1.03441e-05
8.8271e-06
1.30934e-05
3.48525e-09
1.8382e-05
1.74924e-05
0.00054974
0.000721604
2.30082e-06
4.16146e-06
0
0.00404798
0
0.000362466
0.000453712
0.00763553
7.3775e-06
6.60752e-06
5.98343e-10
6.81963e-07
7.80936e-08
0.00318611
1.46937e-06
4.18491e-08
0.00112772
0
0.00175722
0
2.66312e-10
0.00139188
3.01042e-07
0.000379564
1.4265e-10
0.00407981
0.000606116
1.03613e-06
4.15765e-07
0.000447616
0
5.26823e-06
0.000681786
4.64295e-06
5.17531e-06
0.000605535
5.77631e-06
0.0074715
0.0080477
1.07377e-09
0.0010065
0.00274911
8.16186e-10
4.35735e-10
0.0686069
0.00519251
0.00304508
0
0.00268977
0
2.7768e-06
0.00523532
0.00546707
0.00443236
5.05779e-06
4.55305e-06
0.0192792
0.00152562
0.00123602
1.61059e-08
0.00120721
0.00147039
0
4.60653e-07
0.0568787
0.00117447
7.92773e-09
7.03305e-08
0.0163587
0.0050754
4.07123e-05
0.00763841
0.00845773
8.28125e-05
0.00845171
9.13721e-10
0.00119637
9.52415e-06
0.000101793
0.010313
1.8558e-08
0.0117329
0.00801073
2.88095e-09
0
0.00952329
3.28734e-08
0.00750712
1.03556e-07
2.57859e-07
0.000671215
2.32523e-07
0
0
0
2.56463e-07
1.15818e-07
0
0.00263103
0
0.00115817
8.02533e-08
9.22626e-08
0
5.15675e-07
0.00103452
0.00156822
1.12498e-06
0
0
0.00040217
0.000485615
0.000373471
0.0320366
0.000442988
0
0
0.000395975
0.0005271
3.95872e-06
0.000325736
0.00110908
0
0
4.29841e-08
0.00166578
4.68215e-08
2.83933e-08
0.000566459
5.36979e-07
2.25399e-07
0.000403607
0.0203022
0.0252224
0
2.78768e-08
0.0242669
3.55654e-08
3.46781e-08
6.16503e-08
0.0576738
8.85218e-07
3.68219e-08
1.60849e-08
1.30734e-06
0.00257193
5.42476e-08
0.00302136
0.00209124
0.0403517
0
0.000920702
0.0011095
0.00142162
0.00231915
3.5445e-06
0.00155308
1.80477e-06
8.54829e-07
0.00102498
0.000737765
7.2187e-08
0.000622691
3.25717e-07
0.000694118
0.0331073
0
5.37275e-05
0
3.69863e-05
2.1365e-08
4.08981e-08
8.38846e-05
9.20731e-07
6.29582e-05
0.00171859
0
0
5.7127e-09
0.0336963
0.0399374
0
0.00296131
0
0
0
0.000321102
1.73249e-07
0.00468091
0
0.0230196
9.00374e-08
0
0.00070717
0.00234464
0.0969371
0.0337229
0.0949691
0.102435
0.00858309
0.0932514
0.00820104
4.11821e-07
0.0364568
0.00679241
1.74518e-07
0.0323373
0.0325163
8.39403e-09
0.000547797
3.32779e-07
0
0.000468875
0.00488926
1.15115e-05
6.11713e-06
0.00383326
0.0866634
4.25739e-05
0
0.00299325
3.17452e-07
0.0295749
0.0798796
0.00671594
0.0875699
0.00986881
3.23292e-05
0.000414132
0.0849928
0.00742425
0.000280345
0.0056224
1.11818e-05
1.85136e-05
0.00657375
1.30989e-07
0.00123151
7.54663e-06
0.000426651
3.06282e-07
0.0464332
0.000580742
1.74697e-06
7.32751e-07
0.000480469
0.0062774
0
0.052039
3.67047e-10
0
3.23339e-10
0.000349396
1.22366e-10
0.000670233
3.65882e-06
0.000357974
0.0622459
1.69812e-06
0.00366235
0.000710711
6.49999e-07
1.84412e-09
1.3184e-10
4.57342e-09
0.000184032
0
0
0
6.52495e-08
0.0606678
5.40374e-06
0.0962843
0.020926
0.0351501
8.95464e-07
1.09191e-07
0.018797
0.00549411
1.31131e-07
0.0627866
0.0434184
1.01213e-06
4.93357e-08
1.52772e-10
5.6674e-08
7.39068e-07
0.000444989
0.013371
0.0563407
0.0185737
3.38984e-08
3.2369e-08
3.93105e-08
3.91719e-08
0.00422472
0.0581181
0.00194083
0
0.00483841
0.0700855
0
2.90892e-05
0.0356046
9.71211e-09
0.0680358
0.00487296
0.00318322
0
1.39015e-08
1.39467e-05
0.00418889
0
0.00412703
1.07501e-09
0.0233939
5.73376e-06
0.000195743
0.00415138
0
7.59995e-10
1.87423e-08
4.3735e-05
0.00454932
7.91919e-06
1.0114e-09
0.00386399
0.00773509
6.59393e-09
1.50485e-06
0.00297465
0.0038893
3.4864e-06
1.27788e-10
6.29041e-05
0.00299001
0
2.51915e-05
0
2.51331e-08
3.06531e-08
0
1.63789e-07
0
0.00013588
0.0047188
0.00292696
0
0.000993084
5.82263e-09
4.22918e-05
0.00199206
4.9317e-07
1.97184e-08
0.0613079
1.53682e-05
1.8766e-09
0.00119256
1.69191e-10
0.0212147
2.01306e-05
0.000112137
0.0115207
5.58907e-08
0.003415
5.71296e-08
0.00926952
6.80363e-05
8.73442e-09
1.51526e-09
0.0233085
0
8.09362e-09
4.49477e-10
0.0180033
0
0.0230675
1.10104e-07
0.00026973
0.000471976
2.44215e-07
7.58089e-08
6.68803e-10
1.84424e-08
0.00124798
4.93942e-07
0.0346397
0.0222974
2.5426e-06
0.000254062
1.66316e-07
0.000368287
0.000497028
0.0156051
0.00012672
0.000303686
1.30046e-07
0.0106987
0.000615982
9.04993e-05
0.0168605
0.000129329
0
0.000900673
0.0193805
0
0.000188945
5.06862e-09
0.0364083
0.00308304
0
1.1322e-07
0.0176007
0.0203333
8.15586e-08
1.78804e-07
4.41608e-05
0.000192259
0
0.01269
5.87817e-05
0.000238191
7.30048e-08
3.76046e-07
0
2.48189e-06
0.00291434
0
8.57797e-05
0
0.0370287
0.00262815
1.45332e-09
0.000178352
0
0.00261342
0.00297747
0.0182453
0.00190643
0.00597642
0
9.0408e-08
1.59124e-05
7.96479e-06
0
0
6.94003e-10
5.89874e-09
9.63288e-08
0.0204563
0
3.62338e-09
0.0138362
0.0104405
2.13125e-09
0.0228065
0.000221991
0.0177255
0.01732
0.00310226
0.0210258
0.00296424
0.121424
0.000109472
0.0126097
5.48787e-09
0.0942027
6.94909e-07
2.23571e-09
0.00578376
2.23936e-06
3.47727e-06
0.0046392
3.24486e-08
0.00328189
1.26358e-06
2.14327e-06
1.46439e-10
1.3913e-08
0.00992709
0.0370893
4.98238e-07
0.00253505
0.00940426
0.000232546
0
0.0446466
9.39541e-05
0
0.00469158
0.00309536
0.00828021
0.000923107
0.00175895
0.000938155
5.75024e-09
0.00816915
1.47094e-08
6.19968e-09
2.78817e-05
0.000461432
0
0.118954
7.52134e-06
0.000262775
3.94254e-05
0
0.00481528
0.000756311
0
0
1.21804e-05
0
1.66303e-09
4.93581e-10
0.0138052
2.39997e-05
0.000539334
0
0
0.000322543
0
0
0.00524438
0
0.00255552
0
0
9.12605e-08
0.000251522
0.000419782
2.04783e-07
0
0
0.00227439
0.00240944
7.45799e-06
0.00398999
0.00595738
1.12417e-05
0
8.16129e-10
0.000492353
0.000217159
0
0
0
0.000692591
4.9473e-06
4.34197e-07
2.22763e-06
0
1.01499e-09
0
1.12554e-10
0
0.000216375
2.95879e-06
0
4.05044e-06
0.00436758
9.46129e-06
8.47725e-06
0.0346247
0.0209664
8.18239e-06
0
5.8569e-05
0
0.0216232
0
1.89811e-06
0.00389048
4.56239e-06
5.5985e-09
0.0134225
2.40552e-08
0
0.00228969
6.27144e-06
0.0362199
0.000156729
0.0302417
0.0176481
9.76233e-06
9.87356e-08
2.57866e-07
0.0262962
0.0271652
0.000131287
4.10664e-08
0.00064958
3.92088e-07
0
0
1.0374e-08
1.73123e-05
0.00479196
0.00523383
3.27161e-05
0.00100504
1.3979e-07
0
0.0703409
0.0145837
0.00370221
0
0.0161571
1.84605e-05
0.0979058
5.11659e-09
0.00418857
0.000510387
0.0526944
0.00233223
0
0.0016836
1.83137e-07
0.0498481
0.00220015
0.0123376
0.00163098
4.63387e-09
2.5771e-09
0
9.32547e-07
0.00142864
2.65701e-05
2.72528e-06
1.82369e-09
0
0.00440877
2.7494e-08
0.0130185
0.0291756
0.0259879
0.0264755
0.0447802
2.09515e-06
0
0.0899679
0.0419287
0
2.50067e-07
0.00171598
0.00261109
5.56849e-07
4.62089e-10
0.0490602
2.61034e-05
0.00350971
4.86226e-09
0.0258793
8.10176e-10
1.21081e-09
2.19791e-06
0.0509633
0
0.0450197
0.00270439
9.15443e-06
0.0747087
0.00076336
0.0018635
0
0.0667853
0.0183297
0.0162039
0.00557012
0.0309357
0.00410931
0.000253573
0.0469306
0.0317594
2.5158e-10
0.0814846
3.73465e-09
1.13008e-05
0.0479038
0.0306516
1.48748e-07
0.0549869
0.0907366
7.46753e-06
0.00449923
0.00460814
1.0337e-05
0.0563822
0.0107673
6.63743e-05
0.000396256
0.0147418
0.101201
0
0.0182087
8.49628e-09
1.88067e-06
4.59835e-10
0.00278906
1.52086e-06
0.0158332
1.35459e-08
0.0071123
0
0.00134418
0.0167227
0.000259934
0.000158703
0.0147079
0.000147861
0.0106183
0.0040887
0
0.0528974
0.00369887
0.00514665
1.23938e-05
0.00270339
0.00439169
2.23194e-10
0.0855419
0.00219209
4.53522e-07
1.69126e-05
0.00872148
0
0.0029284
2.07189e-07
0.0048749
0.0232576
1.3653e-05
0.00023416
2.20182e-07
5.80704e-07
0.00418179
0.00518493
0.120624
4.68682e-09
0.00690645
0.00495106
0.0152321
0.100727
0.000110442
0.0717831
3.76626e-07
1.33422e-07
0.00304669
3.22257e-06
0.00251247
6.59424e-07
0.0482375
4.12824e-10
1.81448e-05
0.0556894
0.00679683
0
0.00274418
0.00126212
0.0121093
0.0218605
0
0.000352683
2.3753e-06
0.00660249
2.68203e-09
0.00648222
1.31529e-05
2.2536e-08
6.41282e-05
0.000138046
4.97446e-08
0.0896785
2.28958e-08
1.40051e-05
0.00610945
1.94706e-09
0.00649417
0.0943832
0.00133839
2.37314e-09
1.72535e-05
0.10333
3.11608e-08
0.0188224
2.51616e-08
3.19429e-08
0.00669508
0.0249942
1.88153e-05
0.00219475
0
0
7.12876e-07
6.00564e-05
0.0030988
0
0.00186263
0.00272177
1.77061e-06
1.77888e-10
1.14483e-07
1.69406e-06
2.35958e-07
0.0303828
6.42033e-08
0.0985753
2.46574e-08
1.93902e-08
0
1.017e-07
0
0
0.000492574
0.0220431
4.2465e-07
0
0.0507991
2.14368e-06
1.6007e-07
1.9145e-06
0
0.0080308
0.0352735
5.75638e-06
0.00262095
0.0688098
5.34428e-07
8.56419e-07
0
0.000543178
3.94222e-08
1.78956e-08
0.000185465
0.0230448
6.20882e-07
0.00375309
3.00844e-07
0.00163764
0.0105324
0.0738953
0
0.000957686
0.0946376
0.00752935
0.00465635
8.61441e-06
0.104973
0.0415693
0.00401025
0.000414042
0.0419002
8.18654e-07
1.64218e-06
0.00036647
3.37372e-05
0.00377978
2.67802e-09
8.11255e-05
0.00526556
0.000155579
0.00716325
4.24054e-09
1.97111e-09
0.000211067
0.0126302
8.73552e-05
3.17052e-05
0.00922515
0.00349687
0.111792
0.0212035
1.56079e-05
0.00299254
0.0713692
0.0666421
0.00153954
0
0.00942871
9.59805e-06
0.0051371
0
0.00223693
1.62312e-07
0.0610182
7.78588e-07
0.00211392
3.99562e-07
0
0.00148145
7.60757e-08
0.00115121
0.0621889
6.30586e-08
1.50705e-05
2.30572e-07
0.0236055
2.28487e-06
1.3643e-09
2.83633e-08
0.00506018
0.0208518
0.0233306
0.0277463
0.00273726
5.04178e-07
0.043798
0.0192036
0.108234
0.0192884
0.0119883
3.2947e-09
2.83778e-05
0.00347214
0.015567
0.000211088
0.0100929
0.0206544
0.0938412
0
2.78392e-09
0.00698697
1.58234e-05
9.81052e-06
0.00490862
0.0084007
8.92675e-08
0.000295628
0.0981875
0.102229
0.0139525
0.0162512
7.08425e-09
0.105522
2.72695e-07
0.0172431
7.96095e-09
0.104661
1.43599e-09
0.00678242
7.72149e-10
0.0629568
0.00175105
1.03422e-05
7.52116e-07
0.000861728
0.000973215
7.11763e-06
0.000714282
7.08464e-10
0.0190953
5.046e-06
0
3.49363e-10
0.0566759
0.000420067
1.4085e-10
0.0115658
1.94297e-08
0
0
0.00400122
1.20569e-09
0
0.000505535
0.000989515
1.19901e-07
0.000562221
3.35703e-07
0
2.59144e-06
1.35737e-07
2.11059e-07
0.00122099
4.38618e-08
0.0166949
5.32843e-08
0
0
0.00162013
1.05835e-05
5.70137e-08
1.45701e-08
0.0108291
0
0.00342648
0
0.00677766
0.00374843
1.57657e-08
0.00599879
0.000190593
0
0
0.000712318
0.108465
1.36939e-08
0.00382125
2.96297e-06
0
0.000518743
0.0198307
0.000533272
0.0220109
0.000568504
0.00762113
3.17047e-05
0.0186543
0.000449311
1.03112e-09
1.12936e-08
2.63886e-07
0.043822
1.46692e-06
2.18509e-07
0.0382596
8.89109e-09
0.0394254
0.0098075
0.0677474
0.000142856
0
6.80543e-10
0.0034854
0.00333161
0
5.87512e-06
7.25865e-06
0.0238144
0.0294655
0.000723697
0.00153931
0.00292684
6.0685e-06
5.35114e-05
0
0
0.025248
0
0.00168585
0.00338341
2.5014e-08
3.8091e-10
0.00168797
0.0575353
0.0123891
1.48724e-08
2.42045e-08
1.92304e-08
2.21382e-08
0.00010822
1.2888e-08
0.000105322
1.62831e-05
0.0771475
1.04626e-09
0.0176978
1.64509e-08
0.000150638
2.12192e-08
1.82604e-09
2.42766e-08
0.101631
0.0235336
2.69326e-08
9.50199e-05
7.45131e-08
7.12474e-05
0.0241511
1.14131e-08
1.00822e-07
0.000644009
0.000803
5.14063e-06
0.000505097
1.0406e-08
0.00777007
0.000257627
0.00172726
2.19861e-07
1.00321e-07
0.00102052
0.0231982
2.35501e-07
0
0
6.95652e-08
1.1761e-06
1.81084e-07
0.00128839
0.0227576
0.0201959
1.49609e-10
0.00253201
0.000166327
0.000145037
0.0480849
0
0.000438968
0
0.0019952
0.0187229
7.28133e-08
0
1.40046e-08
9.49162e-10
0.0211704
0.0194731
0.000240619
0
0
0.000485259
2.80272e-07
3.24582e-07
0.0297327
0.00330989
0.00074778
0
4.7995e-08
0.000338949
2.24735e-05
0.0863367
0.0385164
0.0901674
0
2.03572e-10
2.73702e-10
0
1.81606e-08
1.06218e-10
0.000118171
0.000120067
0.00421821
0.0792179
0.00387915
0.00235279
8.69366e-07
0
1.45555e-06
1.40865e-05
3.07049e-07
6.64374e-08
0.0078978
4.62077e-09
0.000171314
0.000257135
0.00984798
8.89513e-06
0.000214169
0.028441
0
0
6.6853e-09
0.0175323
0.0192582
3.90175e-08
2.63643e-09
0.0165815
1.05121e-09
0.0152317
0.0392195
0.0183123
0.0184793
0
7.45251e-09
0.00544274
0.000754824
9.74942e-06
0.00228192
3.32859e-10
0
0.00308772
2.45003e-06
3.5321e-06
2.57047e-06
0.0210867
0
0.0208863
0.0252206
4.66907e-07
0
0
2.6076e-05
7.36605e-09
0
0.0373727