# vtk DataFile Version 2.0
Unstructured Grid by M++
ASCII
DATASET UNSTRUCTURED_GRID
POINTS 4072 float
  0.609375   0.843750 0
  0.562500   0.843750 0
  0.531250   0.843750 0
  0.875000   0.828125 0
  0.984375   0.828125 0
  0.953125   0.828125 0
  0.937500   0.828125 0
  0.843750   0.828125 0
  0.812500   0.828125 0
  0.781250   0.828125 0
  0.765625   0.828125 0
  0.734375   0.828125 0
  0.703125   0.828125 0
  0.671875   0.828125 0
  0.640625   0.828125 0
  0.609375   0.828125 0
  0.593750   0.828125 0
  0.562500   0.828125 0
  0.546875   0.828125 0
  0.531250   0.828125 0
  0.515625   0.828125 0
  0.968750   0.812500 0
  0.937500   0.812500 0
  0.921875   0.812500 0
  0.890625   0.812500 0
  0.859375   0.812500 0
  0.828125   0.812500 0
  0.796875   0.812500 0
  0.765625   0.812500 0
  0.750000   0.812500 0
  0.718750   0.812500 0
  0.687500   0.812500 0
  0.656250   0.812500 0
  0.625000   0.812500 0
  0.593750   0.812500 0
  0.578125   0.812500 0
  0.546875   0.812500 0
  0.531250   0.812500 0
  0.515625   0.812500 0
  0.984375   0.796875 0
  0.562500   0.015625 0
  0.953125   0.796875 0
  0.921875   0.796875 0
  0.906250   0.796875 0
  0.875000   0.796875 0
  0.843750   0.796875 0
  0.812500   0.796875 0
  0.781250   0.796875 0
  0.750000   0.796875 0
  0.734375   0.796875 0
  0.703125   0.796875 0
  0.671875   0.796875 0
  0.640625   0.796875 0
  0.609375   0.796875 0
  0.578125   0.796875 0
  0.562500   0.796875 0
  0.531250   0.796875 0
  0.515625   0.796875 0
  0.968750   0.781250 0
  0.546875   0.000000 0
  0.937500   0.781250 0
  0.906250   0.781250 0
  0.890625   0.781250 0
  0.859375   0.781250 0
  0.828125   0.781250 0
  0.796875   0.781250 0
  0.765625   0.781250 0
  0.734375   0.781250 0
  0.718750   0.781250 0
  0.687500   0.781250 0
  0.656250   0.781250 0
  0.625000   0.781250 0
  0.593750   0.781250 0
  0.562500   0.781250 0
  0.546875   0.781250 0
  0.515625   0.781250 0
  0.984375   0.765625 0
  0.953125   0.765625 0
  0.921875   0.765625 0
  0.890625   0.765625 0
  0.875000   0.765625 0
  0.843750   0.765625 0
  0.812500   0.765625 0
  0.781250   0.765625 0
  0.750000   0.765625 0
  0.718750   0.765625 0
  0.703125   0.765625 0
  0.671875   0.765625 0
  0.640625   0.765625 0
  0.609375   0.765625 0
  0.578125   0.765625 0
  0.593750   0.750000 0
  0.562500   0.765625 0
  0.546875   0.765625 0
  0.531250   0.765625 0
  0.562500   0.750000 0
  0.968750   0.750000 0
  0.937500   0.750000 0
  0.906250   0.750000 0
  0.875000   0.750000 0
  0.859375   0.750000 0
  0.828125   0.750000 0
  0.796875   0.750000 0
  0.765625   0.750000 0
  0.734375   0.750000 0
  0.703125   0.750000 0
  0.687500   0.750000 0
  0.671875   0.750000 0
  0.656250   0.750000 0
  0.625000   0.750000 0
  0.546875   0.750000 0
  0.531250   0.750000 0
  0.515625   0.750000 0
  0.562500   0.734375 0
  0.984375   0.734375 0
  0.953125   0.734375 0
  0.921875   0.734375 0
  0.890625   0.734375 0
  0.859375   0.734375 0
  0.843750   0.734375 0
  0.812500   0.734375 0
  0.781250   0.734375 0
  0.750000   0.734375 0
  0.718750   0.734375 0
  0.687500   0.734375 0
  0.671875   0.734375 0
  0.656250   0.734375 0
  0.640625   0.734375 0
  0.546875   0.734375 0
  0.531250   0.734375 0
  0.515625   0.734375 0
  0.562500   0.718750 0
  0.968750   0.718750 0
  0.937500   0.718750 0
  0.906250   0.718750 0
  0.875000   0.718750 0
  0.843750   0.718750 0
  0.796875   0.718750 0
  0.765625   0.718750 0
  0.734375   0.718750 0
  0.703125   0.718750 0
  0.687500   0.718750 0
  0.671875   0.718750 0
  0.656250   0.718750 0
  0.625000   0.718750 0
  0.546875   0.718750 0
  0.531250   0.718750 0
  0.515625   0.718750 0
  0.562500   0.703125 0
  0.953125   0.703125 0
  0.921875   0.703125 0
  0.890625   0.703125 0
  0.859375   0.703125 0
  0.828125   0.703125 0
  0.781250   0.703125 0
  0.750000   0.703125 0
  0.718750   0.703125 0
  0.687500   0.703125 0
  0.656250   0.703125 0
  0.546875   0.703125 0
  0.531250   0.703125 0
  0.515625   0.703125 0
  0.984375   0.687500 0
  0.937500   0.687500 0
  0.921875   0.687500 0
  0.906250   0.687500 0
  0.875000   0.687500 0
  0.843750   0.687500 0
  0.812500   0.687500 0
  0.765625   0.687500 0
  0.734375   0.687500 0
  0.703125   0.687500 0
  0.671875   0.687500 0
  0.640625   0.687500 0
  0.593750   0.687500 0
  0.562500   0.687500 0
  0.546875   0.687500 0
  0.531250   0.687500 0
  0.515625   0.687500 0
  0.968750   0.671875 0
  0.937500   0.671875 0
  0.921875   0.671875 0
  0.906250   0.671875 0
  0.890625   0.671875 0
  0.859375   0.671875 0
  0.828125   0.671875 0
  0.796875   0.671875 0
  0.765625   0.671875 0
  0.750000   0.671875 0
  0.718750   0.671875 0
  0.687500   0.671875 0
  0.656250   0.671875 0
  0.625000   0.671875 0
  0.593750   0.671875 0
  0.578125   0.671875 0
  0.546875   0.671875 0
  0.531250   0.671875 0
  0.515625   0.671875 0
  0.984375   0.656250 0
  0.953125   0.656250 0
  0.937500   0.656250 0
  0.921875   0.656250 0
  0.906250   0.656250 0
  0.875000   0.656250 0
  0.843750   0.656250 0
  0.812500   0.656250 0
  0.781250   0.656250 0
  0.750000   0.656250 0
  0.734375   0.656250 0
  0.703125   0.656250 0
  0.671875   0.656250 0
  0.640625   0.656250 0
  0.609375   0.656250 0
  0.578125   0.656250 0
  0.562500   0.656250 0
  0.531250   0.656250 0
  0.515625   0.656250 0
  0.968750   0.640625 0
  0.937500   0.640625 0
  0.906250   0.640625 0
  0.890625   0.640625 0
  0.859375   0.640625 0
  0.828125   0.640625 0
  0.796875   0.640625 0
  0.765625   0.640625 0
  0.734375   0.640625 0
  0.718750   0.640625 0
  0.687500   0.640625 0
  0.656250   0.640625 0
  0.625000   0.640625 0
  0.593750   0.640625 0
  0.562500   0.640625 0
  0.546875   0.640625 0
  0.515625   0.640625 0
  0.984375   0.625000 0
  0.953125   0.625000 0
  0.921875   0.625000 0
  0.890625   0.625000 0
  0.875000   0.625000 0
  0.843750   0.625000 0
  0.812500   0.625000 0
  0.781250   0.625000 0
  0.750000   0.625000 0
  0.734375   0.625000 0
  0.718750   0.625000 0
  0.703125   0.625000 0
  0.671875   0.625000 0
  0.640625   0.625000 0
  0.609375   0.625000 0
  0.578125   0.625000 0
  0.562500   0.625000 0
  0.546875   0.625000 0
  0.531250   0.625000 0
  0.968750   0.609375 0
  0.937500   0.609375 0
  0.906250   0.609375 0
  0.875000   0.609375 0
  0.859375   0.609375 0
  0.828125   0.609375 0
  0.796875   0.609375 0
  0.765625   0.609375 0
  0.750000   0.609375 0
  0.734375   0.609375 0
  0.718750   0.609375 0
  0.703125   0.609375 0
  0.687500   0.609375 0
  0.656250   0.609375 0
  0.625000   0.609375 0
  0.593750   0.609375 0
  0.562500   0.609375 0
  0.546875   0.609375 0
  0.531250   0.609375 0
  0.515625   0.609375 0
  0.984375   0.593750 0
  0.953125   0.593750 0
  0.921875   0.593750 0
  0.890625   0.593750 0
  0.859375   0.593750 0
  0.843750   0.593750 0
  0.812500   0.593750 0
  0.781250   0.593750 0
  0.750000   0.593750 0
  0.734375   0.593750 0
  0.718750   0.593750 0
  0.687500   0.593750 0
  0.671875   0.593750 0
  0.640625   0.593750 0
  0.609375   0.593750 0
  0.578125   0.593750 0
  0.562500   0.593750 0
  0.546875   0.593750 0
  0.531250   0.593750 0
  0.515625   0.593750 0
  0.968750   0.578125 0
  0.937500   0.578125 0
  0.906250   0.578125 0
  0.875000   0.578125 0
  0.890625   0.562500 0
  0.843750   0.578125 0
  0.828125   0.578125 0
  0.796875   0.578125 0
  0.765625   0.578125 0
  0.734375   0.578125 0
  0.703125   0.578125 0
  0.671875   0.578125 0
  0.656250   0.578125 0
  0.656250   0.562500 0
  0.625000   0.578125 0
  0.640625   0.562500 0
  0.593750   0.578125 0
  0.562500   0.578125 0
  0.546875   0.578125 0
  0.531250   0.578125 0
  0.515625   0.578125 0
  0.859375   0.562500 0
  0.828125   0.562500 0
  0.781250   0.562500 0
  0.750000   0.562500 0
  0.718750   0.562500 0
  0.687500   0.562500 0
  0.609375   0.562500 0
  0.578125   0.562500 0
  0.562500   0.562500 0
  0.546875   0.562500 0
  0.531250   0.562500 0
  0.515625   0.562500 0
  1.000000   0.812500 0
  0.578125   0.031250 0
  0.875000   0.546875 0
  0.625000   0.546875 0
  0.218750   0.000000 0
  0.640625   0.781250 0
  0.828125   0.093750 0
  0.031250   0.531250 0
  0.296875   0.328125 0
  0.296875   0.312500 0
  0.281250   0.312500 0
  0.765625   0.312500 0
  0.031250   0.859375 0
  0.093750   0.265625 0
  0.109375   0.250000 0
  0.187500   0.671875 0
  0.421875   0.640625 0
  0.031250   0.062500 0
  0.140625   0.125000 0
  0.562500   0.906250 0
  0.125000   0.437500 0
  0.203125   0.937500 0
  0.125000   0.421875 0
  0.140625   0.406250 0
  0.093750   0.437500 0
  0.109375   0.421875 0
  0.093750   0.421875 0
  0.109375   0.406250 0
  0.328125   0.125000 0
  0.750000   0.906250 0
  0.328125   0.109375 0
  0.750000   0.890625 0
  0.312500   0.125000 0
  0.734375   0.906250 0
  0.281250   0.343750 0
  0.265625   0.359375 0
  0.500000   0.796875 0
  0.078125   0.015625 0
  0.062500   0.015625 0
  0.484375   0.796875 0
  0.484375   0.781250 0
  0.062500   0.000000 0
  0.015625   0.250000 0
  0.062500   0.046875 0
  0.484375   0.828125 0
  0.484375   0.812500 0
  0.062500   0.031250 0
  0.281250   0.671875 0
  0.062500   0.234375 0
  0.328125   0.765625 0
  0.312500   0.750000 0
  0.015625   0.671875 0
  0.781250   0.187500 0
  0.015625   0.265625 0
  0.453125   0.250000 0
  0.453125   0.234375 0
  0.031250   0.265625 0
  0.046875   0.250000 0
  0.093750   0.015625 0
  0.265625   0.656250 0
  0.734375   0.281250 0
  0.156250   0.015625 0
  0.062500   0.265625 0
  0.046875   0.281250 0
  0.031250   0.281250 0
  0.343750   0.781250 0
  0.328125   0.781250 0
  0.265625   0.687500 0
  0.265625   0.703125 0
  0.156250   0.109375 0
  0.578125   0.890625 0
  0.484375   0.984375 0
  0.062500   0.203125 0
  0.328125   0.718750 0
  0.343750   0.734375 0
  0.343750   0.750000 0
  0.453125   0.500000 0
  0.437500   0.500000 0
  0.234375   0.093750 0
  0.171875   0.375000 0
  0.437500   0.531250 0
  0.468750   0.546875 0
  0.453125   0.546875 0
  0.187500   0.015625 0
  0.187500   0.000000 0
  0.609375   0.781250 0
[...]
CELL_DATA 7648
SCALARS scalar_value float 1
LOOKUP_TABLE default
0.00342048
0.00369858
0.00432047
0.00331991
0.0591615
0.0593301
0.0644773
0.0567431
0.00352204
0.00413534
0.00442561
0.0276569
0.0275436
0.0230216
0.000781483
0.000682652
0.00072396
0.00054976
2.63378e-06
2.53631e-06
3.05428e-06
2.17614e-06
8.79189e-07
2.32685e-07
2.55779e-07
3.72333e-07
2.01911e-07
0.0089185
0.0094602
3.19482e-08
4.00645e-08
5.39995e-08
3.15122e-08
8.95365e-08
1.11919e-07
1.46427e-07
9.3267e-08
3.38766e-08
4.50031e-08
5.99337e-08
1.19418e-08
2.65521e-08
0.00345635
0.00449555
0.00445086
0.0350395
0.0392004
0.0449078
2.09811e-07
0.0511772
0.100298
2.32571e-06
2.85683e-07
3.69447e-07
0.001557
3.37307e-07
0.00193767
0.00120194
8.29279e-08
1.21591e-07
1.78309e-07
1.00122e-06
6.03854e-07
0.00220295
0.00187495
0
0
2.16959e-07
0.000181406
0
9.15665e-05
0
0.000486406
0.000861098
0.00258118
0
0.00654721
0
0.00234608
0.00160264
0.00210652
0
0
0
0.0570115
1.18355e-07
5.87376e-05
5.32057e-05
0.00289818
0
7.3504e-09
0
3.90773e-06
5.31887e-06
0
1.50979e-07
0.00500891
2.61708e-07
0.00663374
0.00790295
0.00116903
7.66484e-07
0.00128305
0.00224375
1.71557e-06
6.12812e-05
0.00055847
0.0522779
0.0468506
4.2771e-09
1.24581e-07
0.000238651
0.000235591
0
6.45924e-06
0
8.27366e-06
4.70096e-06
1.5712e-07
0.0513206
0.0516067
0
0
9.95994e-06
0
0
0
0.0269419
0.0319557
0.0226475
0
0.0128897
0
0.0189906
0.000185478
0.0169224
0.00946133
4.73137e-07
8.49666e-08
0.0309231
0.00308446
0.0338939
0.0365994
3.6649e-08
0.035636
0.039655
0.0491676
2.49136e-06
0.0961773
0.00219586
0.00205143
4.47242e-07
5.82821e-07
7.47156e-07
0.00605697
0.00510217
0.0466211
5.49184e-08
0.0638928
3.69937e-07
0
2.93614e-06
3.41893e-06
0.000373578
0.0397914
0.045136
4.15791e-08
0.0348207
8.13773e-07
0.103312
0
0.0534895
0.0412886
0.00364473
0.000206439
7.07995e-06
0.0770004
0.0228527
0.000153028
0.0264547
0.0304305
0.000205414
0.061828
0.00805537
0
4.17857e-06
0.117083
0
0
0.0107121
0
0.0118094
0.00654475
0
1.9734e-08
0.00722883
0.00868243
0.0070085
0
0
0
0.0505943
5.4491e-06
0.122501
0.115839
4.67279e-06
5.11974e-07
0.0182319
0.0191574
0.016338
4.41828e-08
6.96353e-08
1.03475e-07
6.25371e-08
0.042482
9.31404e-06
0
0.11598
0
0.00179382
0.00388486
0.0438624
0.0498223
1.86416e-08
0.041524
3.98586e-09
0.000573195
0.00139981
0.0327857
0.0277798
0.103497
0.0943598
0.0182099
7.65476e-05
0.124841
0.12682
0.13199
0.125365
0.0128631
0
0.0111224
0.00476527
7.671e-05
0.00216222
0.00237566
0.0378017
0.000249419
0.0337794
0.03849
2.50798e-09
0.0314007
0.00150787
4.95122e-07
6.62207e-07
6.34906e-07
0.00674684
3.41026e-05
0.00406022
0.00447729
2.03371e-06
2.48876e-06
2.43397e-06
0.0170551
5.70777e-08
1.62759e-08
0.0348763
4.14101e-08
0.0450459
2.9192e-08
0.026377
0.0944937
1.99948e-06
0
0.045988
0.00528633
8.63622e-09
0.125316
0.00513835
4.85269e-05
5.99621e-05
9.52701e-09
0.00568235
0.00359131
0.00782076
0.000112394
0.0129275
0.00784782
1.07123e-08
3.67798e-09
0.0125194
6.2648e-09
0.0170124
0.000699871
4.27936e-10
5.70972e-05
5.77002e-05
5.87538e-10
7.12105e-05
0
0.00195165
3.60676e-06
0.000165362
0.0192402
0.002579
1.422e-06
1.15914e-06
1.0308e-06
7.02685e-06
0.0059857
2.20622e-05
1.64286e-05
0.0147648
0.02255
0
0.00515942
0.00103184
8.10071e-06
0.00478944
6.40585e-06
0.000662885
4.70697e-06
9.74305e-07
0.00433799
0.00786525
0.0134085
3.30383e-05
7.03268e-06
0.00760345
0.0102256
1.54139e-05
0.00798492
4.2047e-07
0.0390552
0.00281594
0.0247336
0.0026065
0.0232605
0.0552549
0.0487174
2.03394e-06
0.00425714
0.0711234
0.0632234
0
0.0387987
0.00137072
0.00187473
0.0127624
2.30611e-09
0
0
0
2.86739e-06
0.0135248
1.22564e-09
0.0122576
4.5874e-09
0.0491548
0.0441831
0.0419377
4.58911e-05
3.73991e-05
4.02421e-05
0.00032015
0.00987172
0.00526292
0.00948102
0
1.08205e-09
6.96961e-10
0.0107971
0.000253857
4.03475e-09
0.0236523
2.3945e-09
0.0325449
0.00451037
5.62109e-10
0.000403522
1.18111e-06
4.21876e-05
0.0146619
5.20885e-05
0.000515841
0.0375245
0.000414146
0.0383875
0.000158681
1.81614e-08
0.0276241
0.0226576
0.000523002
0.0441858
0.0365124
0.0442233
2.18279e-07
2.61713e-07
0.05701
0.00465161
0.000667608
5.55084e-08
0.0514716
0.00873253
0.000291639
0.0105844
0.000435403
9.09364e-09
0.014343
0.0579818
1.61006e-07
0.00910886
0.00404424
0.00257375
0.0060217
0.000171161
0.000820842
0
0.000793828
2.49084e-09
0.00017541
0.0118387
0.000281394
0.0143346
8.72512e-07
2.30454e-06
2.04047e-06
0.0467065
2.08967e-06
0.00545673
1.15392e-07
0.0076075
4.87708e-06
8.77777e-08
7.87503e-10
9.68764e-08
5.64804e-08
2.07601e-08
0
0.0683973
0.00743052
1.24413e-05
0.0058126
1.39562e-06
1.66927e-06
0.0112451
2.24696e-06
0.0110661
0.00916007
0.00509111
0.00695203
0.101073
5.9588e-06
8.30144e-08
4.54863e-06
0.00564281
1.23859e-07
1.59519e-07
1.3537e-07
0.00230158
0.00568499
0.0608606
3.77439e-06
0.0037416
0.00287655
0
6.31895e-08
5.1731e-08
4.33516e-10
0
1.81194e-09
0.0242042
3.3751e-10
6.17014e-05
0
5.1653e-10
5.90841e-05
8.34511e-07
0.00181552
0
0.00845957
0
3.41439e-05
0
0
0.0145911
0.0181159
0.0220203
0.00960799
7.54824e-06
1.1731e-05
0
1.04492e-05
0
4.80998e-05
0.00210526
0
4.25967e-06
0.043795
0.00120327
7.04561e-08
5.26893e-08
0.00788368
0.000446622
5.50294e-08
4.07177e-08
0.0453938
1.69604e-07
1.32451e-07
1.24046e-07
1.00425e-07
0.0543067
0.00357773
1.60186e-07
5.4847e-10
0.00448471
3.08131e-08
0.0286435
1.2992e-07
2.94176e-08
0.0308403
1.03878e-07
0.0399833
5.76212e-08
9.67095e-08
0.00296628
0.000220253
0.125694
0.0275478
0.000221183
0.000158446
0.0226136
2.30028e-08
0.0204568
3.19053e-08
0.000224929
0.108304
0.000329642
0.0954257
0.000178256
0.000465055
0.000241616
0.000502237
4.71724e-08
4.94493e-08
0.0533696
0.000186391
0.00423975
0.000169891
0.00254355
0.00020727
0.000154968
0.129615
0.000247928
0.000215456
0.00118201
0.00120144
0.00161075
0.0627713
1.64322e-07
7.75024e-08
0.0571482
1.97394e-08
6.71328e-09
3.32698e-08
0.00237889
0.000142615
1.88826e-06
0.00274099
0.00247674
0.00359
1.11334e-06
0.00336028
0.000176329
0.0238068
3.1611e-08
0.000133453
0.101201
1.5408e-08
0.0043027
3.17562e-06
0.000785549
0.000764943
8.14008e-09
1.30641e-08
0.003362
5.1303e-09
0.00167913
0.0389852
1.17866e-08
0.0780397
0.0857524
0
5.48217e-08
7.43677e-08
0.139768
1.6756e-07
0.000313765
0.0211071
4.41839e-08
0.0302361
6.41066e-08
4.17576e-08
2.14037e-08
2.72495e-08
0.0214997
0.00503937
3.33457e-08
0.0179865
0.000226315
0.0793434
0.0765631
0.076022
0.014618
0.0130802
0.0142613
2.18033e-06
0.0216194
1.81766e-06
8.59762e-08
1.63562e-08
0.0142693
2.48137e-08
3.08968e-08
4.81448e-08
0.00718859
6.10856e-08
4.01854e-08
1.19395e-08
1.72815e-08
2.63152e-08
4.13061e-08
0.00489182
9.25979e-09
1.13503e-08
0.124936
4.11918e-05
0.127795
0.0175464
0.000384493
0.000336885
0.0273329
0.0216943
0.000897902
0.13932
0.0119235
0.0373775
0.0211203
1.18323e-09
1.94703e-09
0
3.68837e-05
0.0252653
0.0288079
4.46109e-09
0
0.000105537
6.6355e-09
8.22972e-05
0.000267004
5.35074e-05
0.00367156
0.00876539
4.13798e-05
5.86249e-08
5.99354e-07
0.0731023
6.29673e-08
6.97695e-07
0
0
0
3.42484e-07
0.0691169
1.00644e-07
0.0610999
3.84674e-06
0.00169493
0.00180603
0.00229876
0.0451047
0.0477928
0.0468751
0.00507597
0
0.000668561
0.0499089
0.0747051
0.0432089
1.07465e-08
0.00276511
0.0483186
0.0536898
3.01589e-08
0.000930125
0.0494221
0.0603961
0.00141857
1.37745e-06
0.0329597
0.0161663
0.0135179
0.00438322
0.0104465
4.49204e-05
0.00744156
2.04087e-05
0.00532532
0.00642477
0.0798371
0.0874814
0.132609
0.136066
0.140049
0.012688
0.00912882
0.104887
0.11239
5.14223e-06
3.07884e-05
0.112906
0.116269
0.00643968
0.00681496
0.0058124
0.0954225
0.103298
0.0298195
0.10848
0.00369133
0.00431606
0.00511364
0.0833327
0.0912639
0.0971815
6.8138e-07
4.15691e-07
0.00084876
0.0777228
0.0768895
0.0838725
0.00412828
0.0841865
0.0969844
0.0913111
2.11913e-07
0.0019902
5.2911e-05
0.00251964
0.0046788
8.5752e-07
0.056178
0.0635775
0.0694232
1.48771e-08
3.60252e-08
2.03024e-08
2.34493e-08
0.000946624
0.000703211
1.49216e-09
0.00642392
1.24078e-05
1.30134e-09
2.56262e-09
7.66978e-05
6.56438e-09
0.004156
0.10368
0.000162533
9.70995e-05
0.000103532
8.27835e-05
0.00015892
0.000139527
0.000120281
0.000125498
4.07565e-08
0.000169294
0.000153432
0.00473556
0.00584693
3.13008e-05
5.56352e-05
0
0.00461972
0
0.00335394
0.00411708
0.0136005
7.6317e-05
6.74395e-05
1.10942e-08
9.94653e-06
1.26768e-06
0.00458028
2.06664e-05
7.44158e-07
0.00305932
1.05942e-09
0.00461036
2.04474e-10
4.85573e-09
0.00354741
4.42226e-06
0.00348064
2.65932e-09
0.0254209
0.00508374
1.42687e-05
5.95352e-06
0.003921
8.68271e-10
6.79852e-05
0.00229202
5.97968e-05
6.60316e-05
0.00430782
8.02327e-05
0.0337137
0.0344485
1.41118e-08
0.00225667
0.00387209
1.40702e-08
7.48462e-09
0.0718328
0.0145459
0.0175585
1.65534e-10
0.0120996
3.24867e-10
2.89774e-05
0.0268278
0.0275379
0.0229913
7.10935e-05
6.44159e-05
0.0186406
0.00472928
0.00393518
2.84929e-07
0.00987917
0.0116834
0
5.57798e-06
0.107293
0.00345703
1.41925e-07
1.11085e-06
0.0705963
0.00322746
0.000467082
0.0411534
0.0447629
0.000893818
0.0435915
1.50888e-08
0.00811947
0.000130105
0.000985278
0.0473804
2.94228e-07
0.0522704
0.00474366
4.94427e-08
0
0.0143211
5.85583e-07
0.0365178
1.30631e-06
3.31977e-06
0.00400938
2.93714e-06
0
0
0
3.88634e-06
1.49238e-06
0
0.0148719
0
0.00766417
1.08606e-06
1.20684e-06
0
6.45719e-06
0.00589406
0.00848629
1.38304e-05
0
0
0.00380724
0.00449289
0.00355712
0.0659077
0.00334377
0
0
0.00318397
0.00402337
5.59939e-05
0.0025914
0.0027638
1.4451e-09
0
7.59644e-07
0.00360281
8.16331e-07
4.99467e-07
0.00464094
7.53084e-06
3.25916e-06
0.00343114
0.0534632
0.0625012
0
4.62928e-07
0.0875141
5.87711e-07
5.79942e-07
1.10148e-06
0.0670755
8.23215e-06
6.59897e-07
2.88785e-07
1.31673e-05
0.00922135
9.70419e-07
0.0103883
0.00724893
0.0633603
2.26728e-10
0.00544598
0.00653549
0.00797328
0.0132492
4.47812e-05
0.00956274
2.32683e-05
1.12542e-05
0.00673335
0.00400996
8.89805e-07
0.00400408
4.17746e-06
0.00431791
0.0628717
0
0.000258203
7.23795e-10
0.000193038
3.84673e-07
7.35557e-07
0.000415994
1.29184e-05
0.000612045
0.0110765
2.56366e-10
1.14076e-10
1.04409e-07
0.0618329
0.0700894
0
0.00392732
3.45688e-10
0
0
0.00289153
2.56674e-06
0.00313134
0
0.0576644
1.09239e-06
0
0.00508676
0.00716085
0.131882
0.0263375
0.134087
0.127904
0.0347995
0.132106
0.00540977
5.8361e-06
0.11202
0.0173882
2.54412e-06
0.104342
0.106227
1.49118e-07
0.00154229
5.67261e-06
0
0.00415914
0.0207545
0.000123583
6.76544e-05
0.0167265
0.138979
0.000407084
0
0.0141671
4.59884e-06
0.100934
0.124662
0.0295796
0.128944
0.0397015
0.000323304
0.00117271
0.12268
0.00584319
0.000932367
0.0258995
0.000129299
0.000233734
0.00554864
2.33754e-06
0.0101167
0.000101653
0.00368395
4.41419e-06
0.110656
0.00256483
2.37349e-05
1.03318e-05
0.00430931
0.0131168
1.26955e-10
0.046598
4.72015e-09
1.0256e-09
4.06665e-09
0.00105221
1.54412e-09
0.00599655
5.14742e-05
0.00267544
0.0615291
1.83632e-05
0.0138918
0.0054191
8.9474e-06
2.2676e-08
1.6973e-09
6.17633e-08
0.00157661
0
0
0
1.16686e-06
0.0671339
7.13538e-05
0.100838
0.0488625
0.0690272
1.10977e-05
1.73485e-06
0.0769208
0.00379831
2.34004e-06
0.0585996
0.0651245
1.02852e-05
8.02183e-07
2.75012e-09
9.64892e-07
1.10823e-05
0.0041029
0.0618593
0.0540164
0.0758189
6.09963e-07
4.57345e-07
5.37686e-07
7.03107e-07
0.0122306
0.0538061
0.00331504
0
0.0151013
0.068649
0
0.00030101
0.0898503
1.76107e-07
0.0690788
0.00331314
0.00393946
0
2.47527e-07
0.000184907
0.0124915
0
0.0152638
1.29518e-08
0.0214212
8.04942e-05
0.000871344
0.0151805
0
1.33745e-08
2.77148e-07
0.000522205
0.017729
8.38444e-05
1.31899e-08
0.0140771
0.033736
9.47298e-08
1.70106e-05
0.0123691
0.0154946
3.82103e-05
2.39358e-09
0.000732651
0.0110591
0
0.000260638
0
4.30932e-07
4.24212e-07
0
2.48732e-06
0
0.00144866
0.0294627
0.0117913
4.81891e-10
0.00842137
7.03821e-08
0.000514616
0.00623177
4.7571e-06
3.52797e-07
0.110454
0.000150921
2.21427e-08
0.00987087
2.98809e-09
0.0263121
0.000261427
0.00114862
0.0551104
9.38125e-07
0.0127071
1.02499e-06
0.0196741
0.00064455
1.02491e-07
1.82882e-08
0.0265304
1.51603e-09
1.20183e-07
5.38431e-09
0.0218731
2.45401e-10
0.0622864
1.51617e-06
0.00208963
0.00348723
3.34229e-06
8.21628e-07
1.21609e-08
3.19411e-07
0.00259991
6.50744e-06
0.089615
0.0617148
3.62766e-05
0.00200635
2.40235e-06
0.00308445
0.00456869
0.0498947
0.0011034
0.00269144
1.92713e-06
0.0179276
0.00555434
0.000785218
0.0502822
0.00107737
0
0.00776385
0.0563942
0
0.00154301
6.68205e-08
0.0570694
0.00477965
0
1.7755e-06
0.0511795
0.0561534
1.02856e-06
2.98896e-06
0.000406387
0.00151343
0
0.0406638
0.000529337
0.00205276
1.06793e-06
5.94975e-06
0
3.28976e-05
0.0044209
0
0.000756002
0
0.0628902
0.0186991
2.51401e-08
0.0015498
0
0.0184788
0.00405594
0.0117947
0.0141768
0.00554539
0
1.41558e-06
0.000146525
0.000109998
7.39783e-10
0
1.26361e-08
1.05113e-07
1.38854e-06
0.0698771
0
5.20273e-08
0.0559554
0.0443388
2.93312e-08
0.0769772
0.00204277
0.0704931
0.0629468
0.00824955
0.043204
0.0149219
0.119367
0.0010752
0.0562979
8.4757e-08
0.107452
1.12243e-05
4.14257e-08
0.0324513
3.34163e-05
5.09939e-05
0.0129707
5.54882e-07
0.00965418
1.99332e-05
3.29367e-05
2.70051e-09
2.26763e-07
0.0480023
0.046268
5.3985e-06
0.00961611
0.00715263
0.00170878
0
0.0530617
0.000789925
0
0.0150262
0.00395235
0.0421862
0.00788473
0.00311621
0.0032143
9.41464e-08
0.0404064
1.70711e-07
7.17925e-08
0.000215307
0.00126641
0
0.12596
7.34847e-05
0.00187833
0.000470504
0
0.00413657
0.00599957
0
0
0.000135229
0
3.01304e-08
6.30579e-09
0.018011
0.000308295
0.00472905
0
0
0.00297726
0
0
0.0048004
0
0.00672574
0
0
1.29596e-06
0.00206194
0.00331147
2.88189e-06
2.82842e-10
0
0.0163498
0.0168981
9.26556e-05
0.0206805
0.0285508
0.000133795
0
1.22397e-08
0.00175609
0.000721586
1.46318e-10
2.06502e-10
9.37447e-10
0.00250354
6.42003e-05
6.63448e-06
2.9539e-05
0
1.84821e-08
0
2.06929e-09
0
0.00156195
2.34981e-05
0
4.26498e-05
0.0161973
9.71055e-05
9.81458e-05
0.0468109
0.0622949
8.18239e-05
0
0.000335123
0
0.0627959
0
1.95119e-05
0.0139477
4.59912e-05
7.61512e-08
0.0419048
3.80131e-07
0
0.013948
8.12515e-05
0.0368649
0.0016436
0.0232766
0.0423404
0.00011426
1.76624e-06
4.50285e-06
0.0675008
0.0679401
0.00112677
5.81285e-07
0.00451233
5.25375e-06
0
0
1.67252e-07
0.000217843
0.0290549
0.0314306
0.000392709
0.0040244
2.19842e-06
0
0.119456
0.032046
0.0187658
0
0.0505283
0.000188056
0.120344
8.99465e-08
0.0255097
0.00177957
0.132011
0.00383241
0
0.00938572
3.24542e-06
0.128409
0.0160984
0.00973943
0.00363401
6.72162e-08
4.46561e-08
0
1.08991e-05
0.00698979
0.000143256
3.58001e-05
2.30676e-08
0
0.00411632
4.90852e-07
0.0163151
0.0999006
0.0928326
0.0941141
0.123814
2.8831e-05
0
0.119404
0.120335
0
2.61294e-06
0.00608384
0.00916095
5.71977e-06
5.76095e-09
0.128676
0.000309757
0.0232339
8.3748e-08
0.0205376
1.48604e-08
1.83784e-08
2.78433e-05
0.115815
2.26762e-10
0.124217
0.0186508
0.000119635
0.0733679
0.0058594
0.0117666
0
0.129967
0.0758071
0.0702409
0.00340603
0.10276
0.0244658
0.000945626
0.125627
0.0324051
4.67949e-09
0.108054
6.85521e-08
0.000132509
0.127212
0.0728812
2.64651e-06
0.133282
0.108882
9.72197e-05
0.0267208
0.0277899
0.000133605
0.135055
0.018558
0.000754786
0.00374194
0.0502207
0.108759
0
0.0567307
1.08623e-07
2.52276e-05
8.49272e-09
0.00434869
1.88499e-05
0.0187477
2.17868e-07
0.0361734
0
0.00727493
0.0707143
0.00245032
0.00153729
0.0639664
0.00154662
0.00653704
0.0106019
1.62386e-10
0.132418
0.0234676
0.00460055
0.000159587
0.0112294
0.0169454
2.72446e-09
0.115336
0.0091286
5.15301e-06
0.00021736
0.00764556
0
0.00434168
3.14082e-06
0.00283271
0.0329664
0.000152762
0.000939343
3.87472e-06
8.45599e-06
0.0136425
0.015589
0.122917
7.86501e-08
0.0369818
0.0108794
0.0508038
0.106461
0.00105478
0.14435
6.51421e-06
2.3796e-06
0.018269
4.59022e-05
0.00814803
6.3783e-06
0.125786
7.39395e-09
0.000237867
0.13485
0.0352913
0
0.00486943
0.0102864
0.0110854
0.0220313
0
0.00125186
3.11711e-05
0.0319951
4.18296e-08
0.0295295
0.000151173
3.04246e-07
0.000566586
0.00112974
6.81671e-07
0.100938
3.74176e-07
0.000160325
0.0312738
3.17197e-08
0.00367704
0.104609
0.00320249
3.43899e-08
0.000183732
0.129424
3.52754e-07
0.0299691
4.2652e-07
5.73617e-07
0.0155881
0.0216898
0.000205634
0.00612867
0
0
9.02218e-06
0.000579703
0.00849642
0
0.00535115
0.00768515
1.48574e-05
3.25728e-09
1.38908e-06
2.45263e-05
3.8385e-06
0.0602011
1.15382e-06
0.110419
3.52558e-07
3.38895e-07
0
1.35695e-06
0
0
0.00406824
0.0842699
6.10938e-06
0
0.08036
2.25722e-05
2.45523e-06
2.31707e-05
3.34104e-10
0.0186039
0.0776407
7.39126e-05
0.0152947
0.0660025
7.90063e-06
1.21458e-05
9.83769e-10
0.00234955
4.45942e-07
2.02658e-07
0.000867661
0.0316709
1.02684e-05
0.0075182
3.02781e-06
0.00536953
0.0206437
0.136993
4.40334e-10
0.00320827
0.115117
0.0160278
0.0237386
0.000106563
0.113025
0.0925194
0.0223291
0.0039014
0.0777674
9.23139e-06
2.06776e-05
0.00121424
0.000413035
0.0199525
4.78903e-08
0.000902557
0.0319669
0.00160931
0.032922
6.32848e-08
2.55174e-08
0.000914022
0.0506165
0.000812211
0.000322875
0.0392128
0.00898357
0.115386
0.0707817
0.000199981
0.0204797
0.117876
0.139861
0.0046601
0
0.0170605
0.000115698
0.0249338
0
0.0133812
2.13034e-06
0.126896
1.00079e-05
0.00716572
4.03917e-06
2.74029e-10
0.00280815
1.25358e-06
0.00570853
0.139791
1.01802e-06
0.000150045
3.4285e-06
0.0885997
2.6458e-05
2.25539e-08
3.58228e-07
0.00291896
0.0821432
0.088123
0.0404721
0.00405446
7.00249e-06
0.120554
0.0266404
0.114076
0.0640712
0.0453001
4.34599e-08
0.000350728
0.0232111
0.0109987
0.00214019
0.0391635
0.0794583
0.117966
6.76538e-10
4.20829e-08
0.0301881
0.000174099
0.000112452
0.0227828
0.0164475
1.59589e-06
0.00288409
0.11321
0.115147
0.0505043
0.0575332
9.57586e-08
0.118355
4.72694e-06
0.0572949
1.04738e-07
0.111006
1.83172e-08
0.0041617
9.89511e-09
0.0642349
0.00325001
0.000103014
1.01485e-05
0.00610953
0.00829845
9.72067e-05
0.00468731
8.86117e-09
0.0257005
7.06475e-05
1.58536e-10
4.27781e-09
0.0512802
0.00291292
1.73294e-09
0.0445851
2.7683e-07
0
0
0.0256293
2.07424e-08
0
0.00189324
0.00357304
1.27452e-06
0.00420052
4.62496e-06
0
3.70856e-05
2.42061e-06
3.72325e-06
0.0024859
7.39788e-07
0.0566683
7.4463e-07
0
0
0.010199
9.81284e-05
8.36156e-07
2.14775e-07
0.0442145
0
0.00390805
0
0.0384068
0.00395808
2.66046e-07
0.0348821
0.00194339
0
0
0.00251722
0.1157
2.09657e-07
0.0117109
2.63281e-05
4.78065e-10
0.00477516
0.0630102
0.00488658
0.0700438
0.00518343
0.0127099
0.0001663
0.0633402
0.00420335
1.79021e-08
1.92507e-07
3.6571e-06
0.11573
1.52091e-05
3.10754e-06
0.11152
1.59556e-07
0.0452583
0.0460901
0.143759
0.0005454
5.79868e-10
8.10283e-09
0.0123799
0.00393851
0
7.80054e-05
9.48615e-05
0.0551144
0.0316369
0.00275416
0.00710666
0.0195689
7.99496e-05
0.000630988
0
0
0.0320718
0
0.00611503
0.00407982
4.48121e-07
6.91513e-09
0.00402459
0.136377
0.0390732
1.82529e-07
2.93986e-07
2.36679e-07
2.78805e-07
0.00100713
1.54626e-07
0.000954575
0.000180414
0.140909
1.51045e-08
0.046435
1.94838e-07
0.00135864
2.51789e-07
2.61144e-08
2.78351e-07
0.117812
0.0873889
3.15212e-07
0.00105151
1.13021e-06
0.000820209
0.058448
1.32409e-07
1.50466e-06
0.00486428
0.00702549
7.1278e-05
0.00355017
1.73518e-07
0.0412033
0.000917406
0.00665031
2.39972e-06
1.09814e-06
0.0039873
0.0837035
3.42838e-06
0
0
7.91244e-07
1.34172e-05
2.1568e-06
0.00614519
0.0547494
0.0491349
2.73061e-09
0.0037699
0.00067427
0.000637884
0.127512
0
0.00395278
0
0.00375486
0.0557667
9.52069e-07
0
2.42858e-07
1.71467e-08
0.0449109
0.042391
0.00200542
0
0
0.00387515
3.95816e-06
5.57357e-06
0.0745944
0.0045682
0.00660366
4.92349e-10
8.65194e-07
0.00135557
0.00013277
0.112703
0.0373135
0.111728
6.51778e-10
3.76034e-09
5.07044e-09
1.43624e-09
2.83343e-07
1.97167e-09
0.00045245
0.000463616
0.00719433
0.0839292
0.0160673
0.00700752
7.89762e-06
1.22273e-10
1.89059e-05
0.000178812
5.33435e-06
1.19149e-06
0.00442834
7.86714e-08
0.0016995
0.00245063
0.0055708
0.000118543
0.00209969
0.0669984
0
0
7.8389e-08
0.043987
0.0504251
4.68248e-07
3.42549e-08
0.0445405
1.93339e-08
0.0432163
0.0711305
0.0419892
0.0439098
1.23108e-10
1.26514e-07
0.0320994
0.00310338
0.000131054
0.0123664
4.32178e-09
0
0.00468649
3.38216e-05
4.74348e-05
3.51091e-05
0.0321754
6.43693e-10
0.0309434
0.0383582
7.9803e-06
0
0