# vtk DataFile Version 2.0
Unstructured Grid by M++
ASCII
DATASET UNSTRUCTURED_GRID
POINTS 4072 float
  0.609375   0.843750 0
  0.562500   0.843750 0
  0.531250   0.843750 0
  0.875000   0.828125 0
  0.984375   0.828125 0
  0.953125   0.828125 0
  0.937500   0.828125 0
  0.843750   0.828125 0
  0.812500   0.828125 0
  0.781250   0.828125 0
  0.765625   0.828125 0
  0.734375   0.828125 0
  0.703125   0.828125 0
  0.671875   0.828125 0
  0.640625   0.828125 0
  0.609375   0.828125 0
  0.593750   0.828125 0
  0.562500   0.828125 0
  0.546875   0.828125 0
  0.531250   0.828125 0
  0.515625   0.828125 0
  0.968750   0.812500 0
  0.937500   0.812500 0
  0.921875   0.812500 0
  0.890625   0.812500 0
  0.859375   0.812500 0
  0.828125   0.812500 0
  0.796875   0.812500 0
  0.765625   0.812500 0
  0.750000   0.812500 0
  0.718750   0.812500 0
  0.687500   0.812500 0
  0.656250   0.812500 0
  0.625000   0.812500 0
  0.593750   0.812500 0
  0.578125   0.812500 0
  0.546875   0.812500 0
  0.531250   0.812500 0
  0.515625   0.812500 0
  0.984375   0.796875 0
  0.562500   0.015625 0
  0.953125   0.796875 0
  0.921875   0.796875 0
  0.906250   0.796875 0
  0.875000   0.796875 0
  0.843750   0.796875 0
  0.812500   0.796875 0
  0.781250   0.796875 0
  0.750000   0.796875 0
  0.734375   0.796875 0
  0.703125   0.796875 0
  0.671875   0.796875 0
  0.640625   0.796875 0
  0.609375   0.796875 0
  0.578125   0.796875 0
  0.562500   0.796875 0
  0.531250   0.796875 0
  0.515625   0.796875 0
  0.968750   0.781250 0
  0.546875   0.000000 0
  0.937500   0.781250 0
  0.906250   0.781250 0
  0.890625   0.781250 0
  0.859375   0.781250 0
  0.828125   0.781250 0
  0.796875   0.781250 0
  0.765625   0.781250 0
  0.734375   0.781250 0
  0.718750   0.781250 0
  0.687500   0.781250 0
  0.656250   0.781250 0
  0.625000   0.781250 0
  0.593750   0.781250 0
  0.562500   0.781250 0
  0.546875   0.781250 0
  0.515625   0.781250 0
  0.984375   0.765625 0
  0.953125   0.765625 0
  0.921875   0.765625 0
  0.890625   0.765625 0
  0.875000   0.765625 0
  0.843750   0.765625 0
  0.812500   0.765625 0
  0.781250   0.765625 0
  0.750000   0.765625 0
  0.718750   0.765625 0
  0.703125   0.765625 0
  0.671875   0.765625 0
  0.640625   0.765625 0
  0.609375   0.765625 0
  0.578125   0.765625 0
  0.593750   0.750000 0
  0.562500   0.765625 0
  0.546875   0.765625 0
  0.531250   0.765625 0
  0.562500   0.750000 0
  0.968750   0.750000 0
  0.937500   0.750000 0
  0.906250   0.750000 0
  0.875000   0.750000 0
  0.859375   0.750000 0
  0.828125   0.750000 0
  0.796875   0.750000 0
  0.765625   0.750000 0
  0.734375   0.750000 0
  0.703125   0.750000 0
  0.687500   0.750000 0
  0.671875   0.750000 0
  0.656250   0.750000 0
  0.625000   0.750000 0
  0.546875   0.750000 0
  0.531250   0.750000 0
  0.515625   0.750000 0
  0.562500   0.734375 0
  0.984375   0.734375 0
  0.953125   0.734375 0
  0.921875   0.734375 0
  0.890625   0.734375 0
  0.859375   0.734375 0
  0.843750   0.734375 0
  0.812500   0.734375 0
  0.781250   0.734375 0
  0.750000   0.734375 0
  0.718750   0.734375 0
  0.687500   0.734375 0
  0.671875   0.734375 0
  0.656250   0.734375 0
  0.640625   0.734375 0
  0.546875   0.734375 0
  0.531250   0.734375 0
  0.515625   0.734375 0
  0.562500   0.718750 0
  0.968750   0.718750 0
  0.937500   0.718750 0
  0.906250   0.718750 0
  0.875000   0.718750 0
  0.843750   0.718750 0
  0.796875   0.718750 0
  0.765625   0.718750 0
  0.734375   0.718750 0
  0.703125   0.718750 0
  0.687500   0.718750 0
  0.671875   0.718750 0
  0.656250   0.718750 0
  0.625000   0.718750 0
  0.546875   0.718750 0
  0.531250   0.718750 0
  0.515625   0.718750 0
  0.562500   0.703125 0
  0.953125   0.703125 0
  0.921875   0.703125 0
  0.890625   0.703125 0
  0.859375   0.703125 0
  0.828125   0.703125 0
  0.781250   0.703125 0
  0.750000   0.703125 0
  0.718750   0.703125 0
  0.687500   0.703125 0
  0.656250   0.703125 0
  0.546875   0.703125 0
  0.531250   0.703125 0
  0.515625   0.703125 0
  0.984375   0.687500 0
  0.937500   0.687500 0
  0.921875   0.687500 0
  0.906250   0.687500 0
  0.875000   0.687500 0
  0.843750   0.687500 0
  0.812500   0.687500 0
  0.765625   0.687500 0
  0.734375   0.687500 0
  0.703125   0.687500 0
  0.671875   0.687500 0
  0.640625   0.687500 0
  0.593750   0.687500 0
  0.562500   0.687500 0
  0.546875   0.687500 0
  0.531250   0.687500 0
  0.515625   0.687500 0
  0.968750   0.671875 0
  0.937500   0.671875 0
  0.921875   0.671875 0
  0.906250   0.671875 0
  0.890625   0.671875 0
  0.859375   0.671875 0
  0.828125   0.671875 0
  0.796875   0.671875 0
  0.765625   0.671875 0
  0.750000   0.671875 0
  0.718750   0.671875 0
  0.687500   0.671875 0
  0.656250   0.671875 0
  0.625000   0.671875 0
  0.593750   0.671875 0
  0.578125   0.671875 0
  0.546875   0.671875 0
  0.531250   0.671875 0
  0.515625   0.671875 0
  0.984375   0.656250 0
  0.953125   0.656250 0
  0.937500   0.656250 0
  0.921875   0.656250 0
  0.906250   0.656250 0
  0.875000   0.656250 0
  0.843750   0.656250 0
  0.812500   0.656250 0
  0.781250   0.656250 0
  0.750000   0.656250 0
  0.734375   0.656250 0
  0.703125   0.656250 0
  0.671875   0.656250 0
  0.640625   0.656250 0
  0.609375   0.656250 0
  0.578125   0.656250 0
  0.562500   0.656250 0
  0.531250   0.656250 0
  0.515625   0.656250 0
  0.968750   0.640625 0
  0.937500   0.640625 0
  0.906250   0.640625 0
  0.890625   0.640625 0
  0.859375   0.640625 0
  0.828125   0.640625 0
  0.796875   0.640625 0
  0.765625   0.640625 0
  0.734375   0.640625 0
  0.718750   0.640625 0
  0.687500   0.640625 0
  0.656250   0.640625 0
  0.625000   0.640625 0
  0.593750   0.640625 0
  0.562500   0.640625 0
  0.546875   0.640625 0
  0.515625   0.640625 0
  0.984375   0.625000 0
  0.953125   0.625000 0
  0.921875   0.625000 0
  0.890625   0.625000 0
  0.875000   0.625000 0
  0.843750   0.625000 0
  0.812500   0.625000 0
  0.781250   0.625000 0
  0.750000   0.625000 0
  0.734375   0.625000 0
  0.718750   0.625000 0
  0.703125   0.625000 0
  0.671875   0.625000 0
  0.640625   0.625000 0
  0.609375   0.625000 0
  0.578125   0.625000 0
  0.562500   0.625000 0
  0.546875   0.625000 0
  0.531250   0.625000 0
  0.968750   0.609375 0
  0.937500   0.609375 0
  0.906250   0.609375 0
  0.875000   0.609375 0
  0.859375   0.609375 0
  0.828125   0.609375 0
  0.796875   0.609375 0
  0.765625   0.609375 0
  0.750000   0.609375 0
  0.734375   0.609375 0
  0.718750   0.609375 0
  0.703125   0.609375 0
  0.687500   0.609375 0
  0.656250   0.609375 0
  0.625000   0.609375 0
  0.593750   0.609375 0
  0.562500   0.609375 0
  0.546875   0.609375 0
  0.531250   0.609375 0
  0.515625   0.609375 0
  0.984375   0.593750 0
  0.953125   0.593750 0
  0.921875   0.593750 0
  0.890625   0.593750 0
  0.859375   0.593750 0
  0.843750   0.593750 0
  0.812500   0.593750 0
  0.781250   0.593750 0
  0.750000   0.593750 0
  0.734375   0.593750 0
  0.718750   0.593750 0
  0.687500   0.593750 0
  0.671875   0.593750 0
  0.640625   0.593750 0
  0.609375   0.593750 0
  0.578125   0.593750 0
  0.562500   0.593750 0
  0.546875   0.593750 0
  0.531250   0.593750 0
  0.515625   0.593750 0
  0.968750   0.578125 0
  0.937500   0.578125 0
  0.906250   0.578125 0
  0.875000   0.578125 0
  0.890625   0.562500 0
  0.843750   0.578125 0
  0.828125   0.578125 0
  0.796875   0.578125 0
  0.765625   0.578125 0
  0.734375   0.578125 0
  0.703125   0.578125 0
  0.671875   0.578125 0
  0.656250   0.578125 0
  0.656250   0.562500 0
  0.625000   0.578125 0
  0.640625   0.562500 0
  0.593750   0.578125 0
  0.562500   0.578125 0
  0.546875   0.578125 0
  0.531250   0.578125 0
  0.515625   0.578125 0
  0.859375   0.562500 0
  0.828125   0.562500 0
  0.781250   0.562500 0
  0.750000   0.562500 0
  0.718750   0.562500 0
  0.687500   0.562500 0
  0.609375   0.562500 0
  0.578125   0.562500 0
  0.562500   0.562500 0
  0.546875   0.562500 0
  0.531250   0.562500 0
  0.515625   0.562500 0
  1.000000   0.812500 0
  0.578125   0.031250 0
  0.875000   0.546875 0
  0.625000   0.546875 0
  0.218750   0.000000 0
  0.640625   0.781250 0
  0.828125   0.093750 0
  0.031250   0.531250 0
  0.296875   0.328125 0
  0.296875   0.312500 0
  0.281250   0.312500 0
  0.765625   0.312500 0
  0.031250   0.859375 0
  0.093750   0.265625 0
  0.109375   0.250000 0
  0.187500   0.671875 0
  0.421875   0.640625 0
  0.031250   0.062500 0
  0.140625   0.125000 0
  0.562500   0.906250 0
  0.125000   0.437500 0
  0.203125   0.937500 0
  0.125000   0.421875 0
  0.140625   0.406250 0
  0.093750   0.437500 0
  0.109375   0.421875 0
  0.093750   0.421875 0
  0.109375   0.406250 0
  0.328125   0.125000 0
  0.750000   0.906250 0
  0.328125   0.109375 0
  0.750000   0.890625 0
  0.312500   0.125000 0
  0.734375   0.906250 0
  0.281250   0.343750 0
  0.265625   0.359375 0
  0.500000   0.796875 0
  0.078125   0.015625 0
  0.062500   0.015625 0
  0.484375   0.796875 0
  0.484375   0.781250 0
  0.062500   0.000000 0
  0.015625   0.250000 0
  0.062500   0.046875 0
  0.484375   0.828125 0
  0.484375   0.812500 0
  0.062500   0.031250 0
  0.281250   0.671875 0
  0.062500   0.234375 0
  0.328125   0.765625 0
  0.312500   0.750000 0
  0.015625   0.671875 0
  0.781250   0.187500 0
  0.015625   0.265625 0
  0.453125   0.250000 0
  0.453125   0.234375 0
  0.031250   0.265625 0
  0.046875   0.250000 0
  0.093750   0.015625 0
  0.265625   0.656250 0
  0.734375   0.281250 0
  0.156250   0.015625 0
  0.062500   0.265625 0
  0.046875   0.281250 0
  0.031250   0.281250 0
  0.343750   0.781250 0
  0.328125   0.781250 0
  0.265625   0.687500 0
  0.265625   0.703125 0
  0.156250   0.109375 0
  0.578125   0.890625 0
  0.484375   0.984375 0
  0.062500   0.203125 0
  0.328125   0.718750 0
  0.343750   0.734375 0
  0.343750   0.750000 0
  0.453125   0.500000 0
  0.437500   0.500000 0
  0.234375   0.093750 0
  0.171875   0.375000 0
  0.437500   0.531250 0
  0.468750   0.546875 0
  0.453125   0.546875 0
  0.187500   0.015625 0
  0.187500   0.000000 0
  0.609375   0.781250 0
[...]
CELL_DATA 7648
SCALARS scalar_value float 1
LOOKUP_TABLE default
0.00064398
0.00070244
0.000831426
0.000625142
0.05812
0.0605781
0.0661154
0.0595586
0.00066801
0.000794846
0.000854313
0.026233
0.0279682
0.022245
0.000126135
0.000108737
0.000115636
8.60203e-05
3.10231e-07
2.99905e-07
3.6635e-07
2.55882e-07
1.47714e-07
2.63401e-08
2.90414e-08
4.24017e-08
2.29098e-08
0.00217663
0.00235146
4.78815e-09
6.0487e-09
8.13184e-09
4.83125e-09
1.35572e-08
1.70955e-08
2.23112e-08
1.44955e-08
5.31887e-09
7.12448e-09
9.47987e-09
1.33853e-09
2.98698e-09
0.000951713
0.00131189
0.00133964
0.0139618
0.0161638
0.0188869
2.84449e-08
0.0206307
0.0591719
3.48919e-07
3.7338e-08
4.95689e-08
0.000688484
3.84951e-08
0.000901354
0.000531179
9.5251e-09
1.39917e-08
2.05334e-08
1.23084e-07
8.75236e-08
0.00114577
0.000942199
0
0
2.76209e-08
3.24061e-05
0
1.28418e-05
0
9.58184e-05
0.000180134
0.00118961
0
0.00144737
0
0.00114722
0.000352697
0.00047808
0
0
0
0.0284712
1.85724e-08
8.07512e-06
7.29359e-06
0.00180768
0
9.20607e-10
0
4.88724e-07
6.81231e-07
0
1.79535e-08
0.00189803
2.99596e-08
0.00244383
0.00303052
0.000253212
1.10947e-07
0.000283011
0.000518441
2.47214e-07
1.05839e-05
9.49554e-05
0.0257993
0.0246595
4.84331e-10
1.42163e-08
7.56524e-05
7.52331e-05
0
8.18957e-07
0
1.07008e-06
5.83076e-07
2.07193e-08
0.051731
0.0540473
0
0
1.53995e-06
0
0
0
0.00796551
0.00983679
0.00663865
0
0.00443436
0
0.0145041
2.67259e-05
0.0138584
0.00197407
6.34148e-08
1.23012e-08
0.0124982
0.00148882
0.0140914
0.0153721
5.30627e-09
0.0151291
0.0158289
0.0549076
3.85306e-07
0.0603236
0.00122038
0.00115728
5.23539e-08
6.86958e-08
8.82388e-08
0.00998335
0.00806022
0.0352996
7.94731e-09
0.0257721
4.83368e-08
0
3.39271e-07
3.96531e-07
6.97178e-05
0.0151697
0.0181046
6.14839e-09
0.013207
1.01337e-07
0.106708
0
0.016699
0.0188271
0.00468126
6.39243e-05
1.2807e-06
0.0678393
0.00770907
2.56366e-05
0.00907397
0.0109748
3.56107e-05
0.0321475
0.00189712
0
5.97139e-07
0.0640873
0
0
0.00280663
0
0.00327078
0.00338769
0
2.24439e-09
0.00384942
0.00459576
0.0038314
0
0
0
0.0296963
7.51092e-07
0.0711158
0.0676711
6.84715e-07
6.53534e-08
0.0155485
0.0175327
0.0141653
5.04809e-09
7.97284e-09
1.1861e-08
7.16422e-09
0.0122969
1.23594e-06
0
0.12599
0
0.00059128
0.00130103
0.0136488
0.0161549
2.3569e-09
0.0131832
5.19658e-10
0.000179041
0.000480749
0.0105212
0.00873319
0.0757333
0.065567
0.00538329
1.16773e-05
0.085822
0.0900886
0.0945079
0.0909696
0.00379827
0
0.00326074
0.00792844
1.06443e-05
0.00124978
0.00142055
0.0109655
3.83416e-05
0.00974096
0.0115162
3.10759e-10
0.00924308
0.00070411
6.39205e-08
8.64894e-08
8.39458e-08
0.00149745
4.91992e-06
0.00246934
0.00289462
2.40793e-07
2.98767e-07
2.95591e-07
0.0065128
6.71192e-09
1.94228e-09
0.00974249
5.91982e-09
0.0165332
4.24331e-09
0.00685099
0.0381198
2.63353e-07
0
0.0462921
0.00744889
1.02524e-09
0.121757
0.00273426
6.61468e-06
8.20129e-06
1.08571e-09
0.0011129
0.00181793
0.0122269
1.60363e-05
0.0068248
0.0125886
1.29232e-09
5.76918e-10
0.00476604
9.72762e-10
0.0160551
0.000264962
0
8.33825e-06
8.44445e-06
0
1.04774e-05
0
0.000924586
5.49884e-07
2.3698e-05
0.0263255
0.00141724
1.66265e-07
1.35258e-07
1.21039e-07
9.44293e-07
0.00295201
2.89667e-06
2.1008e-06
0.00553312
0.0203312
0
0.00369326
0.00022462
1.05202e-06
0.00333495
8.20692e-07
0.000135986
5.88293e-07
1.13154e-07
0.000831287
0.00234345
0.00445397
5.36074e-06
1.09732e-06
0.00234994
0.00327489
2.44318e-06
0.00284922
4.80103e-08
0.0153358
0.000518395
0.030954
0.000475091
0.029937
0.0431022
0.0380962
3.10225e-07
0.00120048
0.0561209
0.0510698
0
0.0401315
0.000234512
0.000329887
0.0188677
3.60205e-10
0
0
0
3.31289e-07
0.00590558
1.3739e-10
0.00499069
5.15627e-10
0.0529473
0.0475466
0.0464319
7.28794e-06
5.81553e-06
6.17068e-06
4.76948e-05
0.00327262
0.0034358
0.00353944
0
1.38904e-10
0
0.0033423
3.72378e-05
4.78019e-10
0.00601062
2.87146e-10
0.00906411
0.00571539
0
0.000145983
1.35721e-07
6.10496e-06
0.00624308
9.74363e-06
0.000188955
0.0124052
7.45636e-05
0.0128788
2.27224e-05
2.09903e-09
0.0185871
0.0162079
8.13594e-05
0.0284946
0.0254832
0.0253119
3.54393e-08
3.64139e-08
0.046037
0.00368038
0.000105675
8.92886e-09
0.0270489
0.00301244
9.77781e-05
0.00385055
6.6382e-05
1.0636e-09
0.00319266
0.0345279
2.63392e-08
0.0125391
0.00195402
0.00120813
0.00680996
2.53002e-05
0.000347411
0
0.000338932
2.85793e-10
2.54824e-05
0.00254964
4.17097e-05
0.0152298
1.10357e-07
2.65781e-07
2.35404e-07
0.0535372
2.4101e-07
0.00252549
1.30841e-08
0.00244849
7.698e-07
9.9461e-09
0
1.10087e-08
6.37898e-09
2.34085e-09
0
0.044726
0.00197769
1.85448e-06
0.00146189
1.75857e-07
1.92441e-07
0.00478047
2.58931e-07
0.0047906
0.00400889
0.00141753
0.00207996
0.0712458
9.56427e-07
9.32093e-09
6.95608e-07
0.00162384
1.39589e-08
1.79944e-08
1.5309e-08
0.000975013
0.00386131
0.0374536
5.45719e-07
0.000901987
0.00075109
0
7.08931e-09
5.82209e-09
0
0
2.03076e-10
0.00752327
0
8.53999e-06
0
0
8.22665e-06
1.24176e-07
0.000432022
0
0.0022266
0
4.60242e-06
0
0
0.00393042
0.00505798
0.00637613
0.00329214
1.21709e-06
1.93784e-06
0
1.31257e-06
0
6.60644e-06
0.000942737
0
7.18991e-07
0.0453599
0.000268239
8.56451e-09
6.39744e-09
0.0036964
8.11457e-05
8.49202e-09
6.29652e-09
0.0200993
2.06912e-08
1.61213e-08
1.52486e-08
1.21194e-08
0.047995
0.00138649
1.83549e-08
0
0.00180788
3.65641e-09
0.0078402
1.56062e-08
3.53771e-09
0.00894627
1.24536e-08
0.0167693
7.99095e-09
1.33955e-08
0.00172525
3.88336e-05
0.117302
0.0105213
3.91924e-05
2.78852e-05
0.00842266
2.68217e-09
0.0254116
3.71863e-09
6.43838e-05
0.0636203
0.000104309
0.0531775
5.06443e-05
0.000153528
7.13578e-05
0.000177076
6.59409e-09
7.02667e-09
0.0349702
2.78748e-05
0.00465429
2.93476e-05
0.00149761
3.66877e-05
2.6969e-05
0.110438
4.27097e-05
3.66483e-05
0.000226756
0.000236386
0.000316596
0.0239817
2.23724e-08
1.08054e-08
0.0219797
2.19674e-09
7.4774e-10
3.73121e-09
0.000592857
2.55893e-05
2.79647e-07
0.000681363
0.000599528
0.000930146
1.41647e-07
0.00207167
3.08343e-05
0.00870155
3.63007e-09
1.8944e-05
0.0459268
1.72142e-09
0.00431712
3.93341e-07
0.000146714
0.000141963
9.29061e-10
1.49516e-09
0.00211816
5.84876e-10
0.000292209
0.0140255
1.46996e-09
0.0303256
0.0350149
0
8.08145e-09
8.81957e-09
0.101858
1.9137e-08
4.78494e-05
0.00521065
5.21373e-09
0.00822797
7.62674e-09
4.93975e-09
3.14248e-09
3.20496e-09
0.00519996
0.0076162
3.93165e-09
0.0251468
3.29717e-05
0.0813993
0.0803982
0.0821632
0.00612017
0.00541306
0.00586076
2.51097e-07
0.0145965
2.0933e-07
1.07012e-08
2.59404e-09
0.00577506
3.90034e-09
4.93328e-09
5.74998e-09
0.0117582
7.30599e-09
4.83683e-09
1.82374e-09
2.63372e-09
3.0045e-09
4.72639e-09
0.00299551
1.43513e-09
1.79068e-09
0.0994614
5.66639e-06
0.107013
0.00510824
5.84623e-05
5.06569e-05
0.0242846
0.0183201
0.000162694
0.0804716
0.00525685
0.0119881
0.0182603
1.33835e-10
2.20974e-10
0
7.06743e-06
0.0081682
0.00940904
5.50465e-10
0
1.49075e-05
8.59342e-10
1.15984e-05
3.95438e-05
7.63718e-06
0.000995441
0.00182068
5.83539e-06
7.44238e-09
9.37086e-08
0.0410472
7.84103e-09
1.07037e-07
0
0
0
3.92327e-08
0.0620909
1.15079e-08
0.0561675
7.03775e-07
0.000296952
0.000319619
0.000417882
0.021379
0.0226456
0.0230112
0.00103371
0
0.000114759
0.0157627
0.0295417
0.014453
1.47226e-09
0.0045774
0.0165964
0.0185224
3.96779e-09
0.000174878
0.0172592
0.0217711
0.000270133
1.58059e-07
0.0199542
0.00620012
0.0050594
0.00353689
0.00262811
6.58224e-06
0.00174129
2.93308e-06
0.00125994
0.00157014
0.0438084
0.0488692
0.081042
0.0859883
0.0895137
0.00345855
0.00234508
0.0642184
0.0698348
7.74853e-07
4.75208e-06
0.0687898
0.0748583
0.00147909
0.00159443
0.00134112
0.0521517
0.0573302
0.0083137
0.0624767
0.000779826
0.000916495
0.00111635
0.0407266
0.0452661
0.0499667
7.8553e-08
4.79277e-08
0.000137992
0.0346435
0.0336488
0.0386626
0.00284423
0.0372374
0.0446922
0.0425702
2.44938e-08
0.000397885
7.24395e-06
0.000519241
0.000902709
1.22151e-07
0.0246138
0.0284169
0.0321716
1.69768e-09
4.12545e-09
2.3257e-09
2.68228e-09
0.000381612
0.00027572
2.3315e-10
0.00440324
2.12698e-06
1.45255e-10
2.86935e-10
1.89033e-05
7.9287e-10
0.00617366
0.046194
3.03088e-05
1.47165e-05
1.5991e-05
1.25279e-05
2.28281e-05
1.9948e-05
1.70608e-05
2.33473e-05
6.51704e-09
3.24058e-05
3.04155e-05
0.000958749
0.00123969
4.43864e-06
7.99991e-06
0
0.00444648
0
0.000642918
0.000801459
0.00932049
1.3406e-05
1.19682e-05
1.23917e-09
1.33565e-06
1.56735e-07
0.00369694
2.85541e-06
8.59604e-08
0.00150558
1.19218e-10
0.00233313
0
5.4946e-10
0.00183341
5.90428e-07
0.000671837
2.95725e-10
0.00663316
0.00105015
2.00372e-06
8.10863e-07
0.000783611
1.35208e-10
1.00494e-05
0.000954193
8.85232e-06
9.84701e-06
0.0010096
1.12106e-05
0.0112644
0.0119819
2.05687e-09
0.0012823
0.00317256
1.66008e-09
8.85488e-10
0.0749284
0.00701375
0.00484696
0
0.00403347
0
5.0528e-06
0.00812523
0.00845091
0.00688809
9.84259e-06
8.8732e-06
0.0205911
0.00210328
0.00171299
3.30252e-08
0.00208771
0.00252684
0
8.66519e-07
0.0709181
0.00159842
1.63046e-08
1.40225e-07
0.0245499
0.00489536
7.56203e-05
0.0120363
0.0132802
0.000151792
0.013186
1.83968e-09
0.00197189
1.84186e-05
0.000181939
0.0156679
3.70276e-08
0.01771
0.00763925
5.85449e-09
0
0.0112033
6.75513e-08
0.0115369
1.96584e-07
4.91562e-07
0.00107263
4.41465e-07
0
0
0
5.06553e-07
2.20856e-07
0
0.00415969
0
0.00189833
1.54655e-07
1.76507e-07
0
9.77034e-07
0.00163657
0.00245298
2.12261e-06
0
0
0.000717318
0.000861993
0.000666974
0.0404999
0.000748844
0
0
0.000679303
0.000893386
7.7137e-06
0.000557358
0.00145098
1.63228e-10
0
8.81459e-08
0.00211307
9.56729e-08
5.8144e-08
0.000975929
1.04256e-06
4.40573e-07
0.000701408
0.0270931
0.0332397
0
5.62398e-08
0.0350135
7.16712e-08
7.00918e-08
1.26796e-07
0.0643879
1.56737e-06
7.57745e-08
3.31094e-08
2.35886e-06
0.00366723
1.11598e-07
0.00427035
0.00295847
0.0480749
0
0.00146947
0.00176983
0.00224233
0.00367494
6.72835e-06
0.00250355
3.44086e-06
1.63719e-06
0.00167745
0.00115179
1.36376e-07
0.0010134
6.20385e-07
0.00112075
0.0411128
0
8.05404e-05
0
5.64775e-05
4.40047e-08
8.42217e-08
0.00012692
1.78775e-06
0.000112626
0.00279986
0
0
1.17996e-08
0.0415294
0.0487693
0
0.00337271
0
0
0
0.00056552
3.40451e-07
0.00456395
0
0.0303887
1.69522e-07
0
0.00118206
0.00322604
0.112579
0.0344993
0.111201
0.116634
0.0126176
0.109378
0.00800551
8.01385e-07
0.0507788
0.00898411
3.41739e-07
0.0455347
0.0458996
1.72272e-08
0.000733818
6.76705e-07
0
0.000823527
0.00724775
2.10876e-05
1.12775e-05
0.00571413
0.104607
7.58334e-05
0
0.0045435
6.20711e-07
0.0421557
0.0957296
0.0100537
0.103644
0.0144975
5.81733e-05
0.000553705
0.100096
0.00752743
0.000388941
0.00849783
2.08092e-05
3.51637e-05
0.00676211
2.69343e-07
0.00213203
1.45434e-05
0.000744228
5.98209e-07
0.061045
0.000864445
3.36876e-06
1.42425e-06
0.000846357
0.0079366
0
0.0548973
6.9996e-10
1.58054e-10
6.13781e-10
0.000473694
2.32448e-10
0.00118147
7.11973e-06
0.000603611
0.0671058
3.11498e-06
0.00529055
0.00120397
1.25694e-06
3.48404e-09
2.5148e-10
8.80969e-09
0.000320189
0
0
0
1.34224e-07
0.0670113
1.03606e-05
0.105576
0.0271637
0.0439941
1.6926e-06
2.18037e-07
0.0278924
0.00539792
2.69646e-07
0.0668726
0.051219
1.83034e-06
9.90399e-08
3.14133e-10
1.151e-07
1.45755e-06
0.000789155
0.0203792
0.0603188
0.0275451
6.98133e-08
6.29583e-08
7.59287e-08
8.06359e-08
0.00575028
0.0617706
0.00233291
0
0.0066986
0.0754675
0
5.27457e-05
0.047311
2.00302e-08
0.0738095
0.00476814
0.00356957
0
2.85544e-08
2.67944e-05
0.00573978
0
0.00593115
2.02261e-09
0.0247176
1.11554e-05
0.000290447
0.00595162
0
1.55426e-09
3.68159e-08
8.20522e-05
0.00661493
1.44645e-05
1.9343e-09
0.00553401
0.011566
1.28698e-08
2.78777e-06
0.00438265
0.00568011
6.41489e-06
2.65172e-10
0.000117378
0.00429374
0
4.56852e-05
0
5.11174e-08
5.93553e-08
0
3.23643e-07
0
0.000248601
0.00768902
0.00428195
0
0.00173095
1.09604e-08
7.96979e-05
0.00275437
8.81935e-07
4.05594e-08
0.075695
2.75907e-05
3.51571e-09
0.00206803
3.46206e-10
0.0239709
3.84951e-05
0.000203111
0.0176886
1.13097e-07
0.0049119
1.17594e-07
0.0117648
0.000121002
1.63409e-08
2.85188e-09
0.0258476
1.73834e-10
1.59115e-08
8.44761e-10
0.0202361
0
0.0310087
2.12971e-07
0.000458551
0.000793876
4.7172e-07
1.3944e-07
1.37944e-09
3.7603e-08
0.00156527
9.46199e-07
0.0462916
0.0301431
4.96281e-06
0.000433852
3.2503e-07
0.000637783
0.000881013
0.0217726
0.000221201
0.000532763
2.55577e-07
0.0128945
0.00108758
0.000157752
0.0231505
0.000223422
0
0.00157536
0.0264837
0
0.000325088
9.71462e-09
0.0433516
0.00363902
0
2.2538e-07
0.0240284
0.0274498
1.54824e-07
3.61641e-07
7.79713e-05
0.000327912
0
0.0176924
0.00010329
0.000415088
1.43075e-07
7.5077e-07
0
4.76098e-06
0.00342169
0
0.000150065
0
0.0448757
0.00440772
2.95852e-09
0.000311314
0
0.0043753
0.00341157
0.0178484
0.00322535
0.00627441
0
1.79896e-07
2.80534e-05
1.54382e-05
0
0
1.43187e-09
1.21147e-08
1.88179e-07
0.0290838
0
7.07078e-09
0.0204249
0.0155566
4.12155e-09
0.0323678
0.000392647
0.0261172
0.0249589
0.00413976
0.0265419
0.00456444
0.131239
0.000196303
0.0190539
1.0883e-08
0.105229
1.39528e-06
4.62997e-09
0.00918615
4.41587e-06
6.82944e-06
0.00626471
6.59584e-08
0.00448147
2.52363e-06
4.25425e-06
3.02874e-10
2.79366e-08
0.0152654
0.0420105
9.14798e-07
0.0036591
0.00948389
0.000390146
0
0.050049
0.000162553
0
0.00653328
0.00349552
0.0128784
0.00161135
0.00213026
0.00132055
1.15567e-08
0.012614
2.74544e-08
1.15686e-08
4.68033e-05
0.000612817
0
0.130642
1.3477e-05
0.000437963
7.39052e-05
0
0.00496178
0.00129265
0
0
2.24696e-05
0
3.42825e-09
9.39973e-10
0.0157493
4.57889e-05
0.000944853
0
0
0.000571527
0
0
0.00548308
0
0.00340032
0
0
1.77701e-07
0.000433302
0.00071696
3.97947e-07
0
0
0.0038193
0.00402127
1.41063e-05
0.00619208
0.00909901
2.10506e-05
0
1.6076e-09
0.000697378
0.000300245
0
0
1.04813e-10
0.000985622
9.44868e-06
8.59511e-07
4.27352e-06
0
2.09436e-09
0
2.32607e-10
0
0.00036124
5.02579e-06
0
7.38709e-06
0.00628157
1.71652e-05
1.57833e-05
0.0399124
0.0288158
1.47504e-05
0
9.14682e-05
0
0.0295638
0
3.4413e-06
0.00555248
8.23623e-06
1.08005e-08
0.0186033
4.79611e-08
0
0.00368666
1.19744e-05
0.0392382
0.000285693
0.0308214
0.0230348
1.82182e-05
2.03115e-07
5.27463e-07
0.0349657
0.0359073
0.000228413
7.99071e-08
0.00107703
7.53861e-07
0
0
2.07768e-08
3.28517e-05
0.00774821
0.0084494
6.14264e-05
0.00146531
2.78479e-07
0
0.0858232
0.0186713
0.00571218
0
0.0224301
3.34492e-05
0.111243
1.04683e-08
0.00677229
0.000719257
0.0701115
0.00278323
0
0.00265256
3.75934e-07
0.0667474
0.00371126
0.0125671
0.00208324
9.06276e-09
5.25041e-09
0
1.74039e-06
0.00218055
4.09035e-05
5.21785e-06
3.46563e-09
0
0.00462879
5.65278e-08
0.0147062
0.0416235
0.037426
0.0380415
0.0609083
4.05218e-06
0
0.103976
0.0574965
0
4.55864e-07
0.00243846
0.00370558
1.01012e-06
8.75569e-10
0.0659402
4.88466e-05
0.00579014
9.89292e-09
0.0265194
1.67423e-09
2.39146e-09
4.17424e-06
0.0663158
0
0.0611996
0.00449851
1.75183e-05
0.0805352
0.00129489
0.00302179
0
0.084066
0.0272458
0.0243476
0.0053305
0.0437959
0.00660742
0.000361419
0.063381
0.034413
5.21323e-10
0.0940271
7.72019e-09
2.10935e-05
0.064574
0.0400775
3.05615e-07
0.0726348
0.10248
1.42746e-05
0.00723361
0.00743785
1.97317e-05
0.0742784
0.013058
0.000123152
0.000706374
0.020873
0.111645
0
0.0252802
1.61795e-08
3.61672e-06
9.51532e-10
0.00329387
2.87451e-06
0.0176805
2.71155e-08
0.0110461
0
0.00210171
0.024992
0.000462635
0.000283892
0.0221097
0.000269354
0.0102371
0.00542735
0
0.0703661
0.00603654
0.00535195
2.36412e-05
0.0039811
0.00637109
4.211e-10
0.0991604
0.00322849
8.41452e-07
3.22589e-05
0.00907174
0
0.00342051
4.09244e-07
0.00461272
0.027072
2.52214e-05
0.000339381
4.51221e-07
1.13681e-06
0.00584648
0.0071165
0.131389
9.47387e-09
0.0108585
0.0063295
0.0214635
0.11072
0.000196828
0.091076
7.68843e-07
2.74327e-07
0.00489943
6.28882e-06
0.00350412
1.1793e-06
0.0647713
8.48071e-10
3.47762e-05
0.0735326
0.0106061
0
0.00333573
0.002181
0.0127405
0.0235855
0
0.000497982
4.5466e-06
0.0101248
5.33003e-09
0.00978193
2.44351e-05
4.34076e-08
0.000112191
0.000237497
9.61207e-08
0.0998148
4.60078e-08
2.59876e-05
0.00949287
3.9081e-09
0.0061231
0.104762
0.00173641
4.64005e-09
3.15371e-05
0.117647
5.78533e-08
0.0224658
5.10243e-08
6.57598e-08
0.00867196
0.0261087
3.45393e-05
0.00295866
0
0
1.35369e-06
0.000107256
0.0041641
0
0.00252579
0.00368075
3.05196e-06
3.67333e-10
2.15537e-07
3.31706e-06
4.7408e-07
0.0380754
1.32182e-07
0.10972
4.80818e-08
3.96323e-08
0
1.95388e-07
0
0
0.000850288
0.0322228
8.29033e-07
0
0.0606938
3.90855e-06
3.1702e-07
3.59963e-06
0
0.0103894
0.0453463
1.09686e-05
0.00417714
0.0737556
1.04983e-06
1.66682e-06
1.11807e-10
0.000804564
7.31734e-08
3.32343e-08
0.000278401
0.0266422
1.25375e-06
0.00469489
5.43798e-07
0.00228687
0.0131388
0.0920931
0
0.00134129
0.107264
0.00956045
0.00720725
1.62773e-05
0.115856
0.0536905
0.00634251
0.000737768
0.0518405
1.51599e-06
3.11458e-06
0.000509158
6.36284e-05
0.00589035
5.50354e-09
0.000149787
0.00852624
0.000282703
0.0108457
8.34517e-09
3.76385e-09
0.00031129
0.0185852
0.000154736
5.72842e-05
0.0137304
0.00463086
0.12217
0.0299877
2.97452e-05
0.00497287
0.0865283
0.0853188
0.00211111
0
0.0115542
1.80291e-05
0.00785932
0
0.00358253
3.10724e-07
0.077917
1.48344e-06
0.00297595
7.22555e-07
0
0.00181978
1.53251e-07
0.0017614
0.0807925
1.2638e-07
2.71553e-05
4.53447e-07
0.0343469
4.25475e-06
2.74766e-09
5.38675e-08
0.00478151
0.0306824
0.034005
0.032511
0.00319494
9.76859e-07
0.0595268
0.0222366
0.118885
0.027217
0.0173743
6.31562e-09
5.36535e-05
0.00574275
0.0154997
0.000382011
0.0146994
0.0302268
0.107148
1.00768e-10
5.49393e-09
0.010414
2.91158e-05
1.8225e-05
0.00742718
0.0104726
1.83624e-07
0.000530622
0.109985
0.113936
0.0200389
0.0232506
1.36488e-08
0.117458
5.56781e-07
0.0243035
1.52513e-08
0.115147
2.73367e-09
0.00650576
1.47139e-09
0.0683385
0.00214369
1.86303e-05
1.44818e-06
0.00143536
0.00169835
1.37612e-05
0.00116851
1.34327e-09
0.0219636
9.81046e-06
0
6.59543e-10
0.059941
0.000695803
2.66174e-10
0.0168387
3.78581e-08
0
0
0.00655207
2.45116e-09
0
0.000724256
0.00140967
2.19574e-07
0.000948173
6.4934e-07
0
5.06203e-06
2.79045e-07
4.32789e-07
0.00152259
8.88554e-08
0.023646
1.03395e-07
0
0
0.00262442
1.8698e-05
1.11799e-07
2.85996e-08
0.0159828
0
0.00377118
0
0.0108066
0.00405058
3.19265e-08
0.00961684
0.000345308
0
0
0.00100859
0.119421
2.71064e-08
0.00526768
5.17937e-06
0
0.000919845
0.0276872
0.000944701
0.0307782
0.00100608
0.00916897
4.84791e-05
0.0264552
0.000799412
2.10107e-09
2.29254e-08
5.11092e-07
0.0589967
2.66494e-06
4.25581e-07
0.052665
1.82976e-08
0.0438548
0.0149765
0.0869316
0.000203833
0
1.27742e-09
0.00496297
0.00369683
0
1.12798e-05
1.38872e-05
0.0308691
0.0322806
0.00104216
0.00231849
0.00483199
1.16302e-05
0.000100123
0
0
0.0286934
0
0.00240763
0.00376955
5.1469e-08
7.85202e-10
0.00219121
0.0756152
0.0172028
2.80796e-08
4.55962e-08
3.63273e-08
4.20208e-08
0.000191768
2.42196e-08
0.000185512
2.99984e-05
0.0958683
2.0439e-09
0.0235681
3.08316e-08
0.000265124
3.97814e-08
3.56012e-09
4.51932e-08
0.113977
0.0341816
5.03469e-08
0.00017527
1.47202e-07
0.000132601
0.0316356
2.13019e-08
1.98457e-07
0.00108877
0.00140891
9.97163e-06
0.000839639
2.10067e-08
0.0121974
0.000363214
0.00249936
4.04617e-07
1.84862e-07
0.00147981
0.0334649
4.6099e-07
0
0
1.29235e-07
2.18324e-06
3.39538e-07
0.00195421
0.0297546
0.0264544
3.08683e-10
0.00295694
0.000241084
0.000214118
0.0647836
0
0.0007738
0
0.00245299
0.0257212
1.39291e-07
0
2.85605e-08
1.95496e-09
0.0269111
0.0248902
0.0004161
0
0
0.000831154
5.45032e-07
6.61234e-07
0.0393693
0.00380367
0.00131458
0
9.88701e-08
0.000492039
3.53304e-05
0.0993483
0.041286
0.102575
0
4.21218e-10
5.66693e-10
1.6058e-10
3.61025e-08
2.19996e-10
0.000168361
0.0001715
0.00509338
0.086859
0.00571464
0.00321906
1.53052e-06
0
2.77953e-06
2.67805e-05
6.27353e-07
1.36741e-07
0.00744532
9.37303e-09
0.000308293
0.000458862
0.00932076
1.71015e-05
0.000384584
0.0370742
0
0
1.25061e-08
0.0231086
0.0256518
7.331e-08
5.038e-09
0.0221919
2.17363e-09
0.0206396
0.0482434
0.0236701
0.024072
0
1.51092e-08
0.00874854
0.00110626
1.87847e-05
0.00357285
6.36029e-10
0
0.0036272
4.74291e-06
6.79615e-06
4.96384e-06
0.0249405
0
0.0245435
0.0298191
9.50429e-07
0
0
4.9601e-05