# vtk DataFile Version 2.0
Unstructured Grid by M++
ASCII
DATASET UNSTRUCTURED_GRID
POINTS 4072 float
  0.609375   0.843750 0
  0.562500   0.843750 0
  0.531250   0.843750 0
  0.875000   0.828125 0
  0.984375   0.828125 0
  0.953125   0.828125 0
  0.937500   0.828125 0
  0.843750   0.828125 0
  0.812500   0.828125 0
  0.781250   0.828125 0
  0.765625   0.828125 0
  0.734375   0.828125 0
  0.703125   0.828125 0
  0.671875   0.828125 0
  0.640625   0.828125 0
  0.609375   0.828125 0
  0.593750   0.828125 0
  0.562500   0.828125 0
  0.546875   0.828125 0
  0.531250   0.828125 0
  0.515625   0.828125 0
  0.968750   0.812500 0
  0.937500   0.812500 0
  0.921875   0.812500 0
  0.890625   0.812500 0
  0.859375   0.812500 0
  0.828125   0.812500 0
  0.796875   0.812500 0
  0.765625   0.812500 0
  0.750000   0.812500 0
  0.718750   0.812500 0
  0.687500   0.812500 0
  0.656250   0.812500 0
  0.625000   0.812500 0
  0.593750   0.812500 0
  0.578125   0.812500 0
  0.546875   0.812500 0
  0.531250   0.812500 0
  0.515625   0.812500 0
  0.984375   0.796875 0
  0.562500   0.015625 0
  0.953125   0.796875 0
  0.921875   0.796875 0
  0.906250   0.796875 0
  0.875000   0.796875 0
  0.843750   0.796875 0
  0.812500   0.796875 0
  0.781250   0.796875 0
  0.750000   0.796875 0
  0.734375   0.796875 0
  0.703125   0.796875 0
  0.671875   0.796875 0
  0.640625   0.796875 0
  0.609375   0.796875 0
  0.578125   0.796875 0
  0.562500   0.796875 0
  0.531250   0.796875 0
  0.515625   0.796875 0
  0.968750   0.781250 0
  0.546875   0.000000 0
  0.937500   0.781250 0
  0.906250   0.781250 0
  0.890625   0.781250 0
  0.859375   0.781250 0
  0.828125   0.781250 0
  0.796875   0.781250 0
  0.765625   0.781250 0
  0.734375   0.781250 0
  0.718750   0.781250 0
  0.687500   0.781250 0
  0.656250   0.781250 0
  0.625000   0.781250 0
  0.593750   0.781250 0
  0.562500   0.781250 0
  0.546875   0.781250 0
  0.515625   0.781250 0
  0.984375   0.765625 0
  0.953125   0.765625 0
  0.921875   0.765625 0
  0.890625   0.765625 0
  0.875000   0.765625 0
  0.843750   0.765625 0
  0.812500   0.765625 0
  0.781250   0.765625 0
  0.750000   0.765625 0
  0.718750   0.765625 0
  0.703125   0.765625 0
  0.671875   0.765625 0
  0.640625   0.765625 0
  0.609375   0.765625 0
  0.578125   0.765625 0
  0.593750   0.750000 0
  0.562500   0.765625 0
  0.546875   0.765625 0
  0.531250   0.765625 0
  0.562500   0.750000 0
  0.968750   0.750000 0
  0.937500   0.750000 0
  0.906250   0.750000 0
  0.875000   0.750000 0
  0.859375   0.750000 0
  0.828125   0.750000 0
  0.796875   0.750000 0
  0.765625   0.750000 0
  0.734375   0.750000 0
  0.703125   0.750000 0
  0.687500   0.750000 0
  0.671875   0.750000 0
  0.656250   0.750000 0
  0.625000   0.750000 0
  0.546875   0.750000 0
  0.531250   0.750000 0
  0.515625   0.750000 0
  0.562500   0.734375 0
  0.984375   0.734375 0
  0.953125   0.734375 0
  0.921875   0.734375 0
  0.890625   0.734375 0
  0.859375   0.734375 0
  0.843750   0.734375 0
  0.812500   0.734375 0
  0.781250   0.734375 0
  0.750000   0.734375 0
  0.718750   0.734375 0
  0.687500   0.734375 0
  0.671875   0.734375 0
  0.656250   0.734375 0
  0.640625   0.734375 0
  0.546875   0.734375 0
  0.531250   0.734375 0
  0.515625   0.734375 0
  0.562500   0.718750 0
  0.968750   0.718750 0
  0.937500   0.718750 0
  0.906250   0.718750 0
  0.875000   0.718750 0
  0.843750   0.718750 0
  0.796875   0.718750 0
  0.765625   0.718750 0
  0.734375   0.718750 0
  0.703125   0.718750 0
  0.687500   0.718750 0
  0.671875   0.718750 0
  0.656250   0.718750 0
  0.625000   0.718750 0
  0.546875   0.718750 0
  0.531250   0.718750 0
  0.515625   0.718750 0
  0.562500   0.703125 0
  0.953125   0.703125 0
  0.921875   0.703125 0
  0.890625   0.703125 0
  0.859375   0.703125 0
  0.828125   0.703125 0
  0.781250   0.703125 0
  0.750000   0.703125 0
  0.718750   0.703125 0
  0.687500   0.703125 0
  0.656250   0.703125 0
  0.546875   0.703125 0
  0.531250   0.703125 0
  0.515625   0.703125 0
  0.984375   0.687500 0
  0.937500   0.687500 0
  0.921875   0.687500 0
  0.906250   0.687500 0
  0.875000   0.687500 0
  0.843750   0.687500 0
  0.812500   0.687500 0
  0.765625   0.687500 0
  0.734375   0.687500 0
  0.703125   0.687500 0
  0.671875   0.687500 0
  0.640625   0.687500 0
  0.593750   0.687500 0
  0.562500   0.687500 0
  0.546875   0.687500 0
  0.531250   0.687500 0
  0.515625   0.687500 0
  0.968750   0.671875 0
  0.937500   0.671875 0
  0.921875   0.671875 0
  0.906250   0.671875 0
  0.890625   0.671875 0
  0.859375   0.671875 0
  0.828125   0.671875 0
  0.796875   0.671875 0
  0.765625   0.671875 0
  0.750000   0.671875 0
  0.718750   0.671875 0
  0.687500   0.671875 0
  0.656250   0.671875 0
  0.625000   0.671875 0
  0.593750   0.671875 0
  0.578125   0.671875 0
  0.546875   0.671875 0
  0.531250   0.671875 0
  0.515625   0.671875 0
  0.984375   0.656250 0
  0.953125   0.656250 0
  0.937500   0.656250 0
  0.921875   0.656250 0
  0.906250   0.656250 0
  0.875000   0.656250 0
  0.843750   0.656250 0
  0.812500   0.656250 0
  0.781250   0.656250 0
  0.750000   0.656250 0
  0.734375   0.656250 0
  0.703125   0.656250 0
  0.671875   0.656250 0
  0.640625   0.656250 0
  0.609375   0.656250 0
  0.578125   0.656250 0
  0.562500   0.656250 0
  0.531250   0.656250 0
  0.515625   0.656250 0
  0.968750   0.640625 0
  0.937500   0.640625 0
  0.906250   0.640625 0
  0.890625   0.640625 0
  0.859375   0.640625 0
  0.828125   0.640625 0
  0.796875   0.640625 0
  0.765625   0.640625 0
  0.734375   0.640625 0
  0.718750   0.640625 0
  0.687500   0.640625 0
  0.656250   0.640625 0
  0.625000   0.640625 0
  0.593750   0.640625 0
  0.562500   0.640625 0
  0.546875   0.640625 0
  0.515625   0.640625 0
  0.984375   0.625000 0
  0.953125   0.625000 0
  0.921875   0.625000 0
  0.890625   0.625000 0
  0.875000   0.625000 0
  0.843750   0.625000 0
  0.812500   0.625000 0
  0.781250   0.625000 0
  0.750000   0.625000 0
  0.734375   0.625000 0
  0.718750   0.625000 0
  0.703125   0.625000 0
  0.671875   0.625000 0
  0.640625   0.625000 0
  0.609375   0.625000 0
  0.578125   0.625000 0
  0.562500   0.625000 0
  0.546875   0.625000 0
  0.531250   0.625000 0
  0.968750   0.609375 0
  0.937500   0.609375 0
  0.906250   0.609375 0
  0.875000   0.609375 0
  0.859375   0.609375 0
  0.828125   0.609375 0
  0.796875   0.609375 0
  0.765625   0.609375 0
  0.750000   0.609375 0
  0.734375   0.609375 0
  0.718750   0.609375 0
  0.703125   0.609375 0
  0.687500   0.609375 0
  0.656250   0.609375 0
  0.625000   0.609375 0
  0.593750   0.609375 0
  0.562500   0.609375 0
  0.546875   0.609375 0
  0.531250   0.609375 0
  0.515625   0.609375 0
  0.984375   0.593750 0
  0.953125   0.593750 0
  0.921875   0.593750 0
  0.890625   0.593750 0
  0.859375   0.593750 0
  0.843750   0.593750 0
  0.812500   0.593750 0
  0.781250   0.593750 0
  0.750000   0.593750 0
  0.734375   0.593750 0
  0.718750   0.593750 0
  0.687500   0.593750 0
  0.671875   0.593750 0
  0.640625   0.593750 0
  0.609375   0.593750 0
  0.578125   0.593750 0
  0.562500   0.593750 0
  0.546875   0.593750 0
  0.531250   0.593750 0
  0.515625   0.593750 0
  0.968750   0.578125 0
  0.937500   0.578125 0
  0.906250   0.578125 0
  0.875000   0.578125 0
  0.890625   0.562500 0
  0.843750   0.578125 0
  0.828125   0.578125 0
  0.796875   0.578125 0
  0.765625   0.578125 0
  0.734375   0.578125 0
  0.703125   0.578125 0
  0.671875   0.578125 0
  0.656250   0.578125 0
  0.656250   0.562500 0
  0.625000   0.578125 0
  0.640625   0.562500 0
  0.593750   0.578125 0
  0.562500   0.578125 0
  0.546875   0.578125 0
  0.531250   0.578125 0
  0.515625   0.578125 0
  0.859375   0.562500 0
  0.828125   0.562500 0
  0.781250   0.562500 0
  0.750000   0.562500 0
  0.718750   0.562500 0
  0.687500   0.562500 0
  0.609375   0.562500 0
  0.578125   0.562500 0
  0.562500   0.562500 0
  0.546875   0.562500 0
  0.531250   0.562500 0
  0.515625   0.562500 0
  1.000000   0.812500 0
  0.578125   0.031250 0
  0.875000   0.546875 0
  0.625000   0.546875 0
  0.218750   0.000000 0
  0.640625   0.781250 0
  0.828125   0.093750 0
  0.031250   0.531250 0
  0.296875   0.328125 0
  0.296875   0.312500 0
  0.281250   0.312500 0
  0.765625   0.312500 0
  0.031250   0.859375 0
  0.093750   0.265625 0
  0.109375   0.250000 0
  0.187500   0.671875 0
  0.421875   0.640625 0
  0.031250   0.062500 0
  0.140625   0.125000 0
  0.562500   0.906250 0
  0.125000   0.437500 0
  0.203125   0.937500 0
  0.125000   0.421875 0
  0.140625   0.406250 0
  0.093750   0.437500 0
  0.109375   0.421875 0
  0.093750   0.421875 0
  0.109375   0.406250 0
  0.328125   0.125000 0
  0.750000   0.906250 0
  0.328125   0.109375 0
  0.750000   0.890625 0
  0.312500   0.125000 0
  0.734375   0.906250 0
  0.281250   0.343750 0
  0.265625   0.359375 0
  0.500000   0.796875 0
  0.078125   0.015625 0
  0.062500   0.015625 0
  0.484375   0.796875 0
  0.484375   0.781250 0
  0.062500   0.000000 0
  0.015625   0.250000 0
  0.062500   0.046875 0
  0.484375   0.828125 0
  0.484375   0.812500 0
  0.062500   0.031250 0
  0.281250   0.671875 0
  0.062500   0.234375 0
  0.328125   0.765625 0
  0.312500   0.750000 0
  0.015625   0.671875 0
  0.781250   0.187500 0
  0.015625   0.265625 0
  0.453125   0.250000 0
  0.453125   0.234375 0
  0.031250   0.265625 0
  0.046875   0.250000 0
  0.093750   0.015625 0
  0.265625   0.656250 0
  0.734375   0.281250 0
  0.156250   0.015625 0
  0.062500   0.265625 0
  0.046875   0.281250 0
  0.031250   0.281250 0
  0.343750   0.781250 0
  0.328125   0.781250 0
  0.265625   0.687500 0
  0.265625   0.703125 0
  0.156250   0.109375 0
  0.578125   0.890625 0
  0.484375   0.984375 0
  0.062500   0.203125 0
  0.328125   0.718750 0
  0.343750   0.734375 0
  0.343750   0.750000 0
  0.453125   0.500000 0
  0.437500   0.500000 0
  0.234375   0.093750 0
  0.171875   0.375000 0
  0.437500   0.531250 0
  0.468750   0.546875 0
  0.453125   0.546875 0
  0.187500   0.015625 0
  0.187500   0.000000 0
  0.609375   0.781250 0
[...]
CELL_DATA 7648
SCALARS scalar_value float 1
LOOKUP_TABLE default
0.00369266
0.00399091
0.00465841
0.0035841
0.0584525
0.0584939
0.0635516
0.0558578
0.00380077
0.00445915
0.00477093
0.0273841
0.0271703
0.0227748
0.00085083
0.00074375
0.000788625
0.000599543
2.91593e-06
2.80753e-06
3.37858e-06
2.4095e-06
9.5485e-07
2.5816e-07
2.8373e-07
4.12944e-07
2.23985e-07
0.00950279
0.0100703
3.49226e-08
4.37763e-08
5.90112e-08
3.4401e-08
9.78169e-08
1.22209e-07
1.59913e-07
1.0174e-07
3.69311e-08
4.90375e-08
6.53106e-08
1.32578e-08
2.94713e-08
0.00366134
0.0047475
0.00469299
0.036365
0.0406071
0.0464669
2.3065e-07
0.0530626
0.101827
2.5423e-06
3.14682e-07
4.06367e-07
0.0016099
3.74052e-07
0.00199765
0.00124327
9.19367e-08
1.34785e-07
1.97646e-07
1.10636e-06
6.61352e-07
0.0022577
0.00192544
0
0
2.3932e-07
0.000196399
1.01529e-10
0.000100446
0
0.000524196
0.000925012
0.00266141
0
0.00701184
0
0.00241183
0.00171677
0.00225282
0
0
0
0.0584484
1.29036e-07
6.45037e-05
5.84382e-05
0.00294107
0
8.11549e-09
0
4.31399e-06
5.86479e-06
0
1.67122e-07
0.00521619
2.90167e-07
0.00691802
0.00822292
0.00125345
8.3953e-07
0.00137442
0.0023974
1.87955e-06
6.64753e-05
0.000606552
0.0536342
0.0479084
4.74613e-09
1.38157e-07
0.000251452
0.000248114
0
7.1251e-06
0
9.11752e-06
5.19155e-06
1.72988e-07
0.0506342
0.0508088
0
0
1.087e-05
0
0
0
0.0283977
0.0336069
0.0238893
0
0.0134882
0
0.0190323
0.000203157
0.0168962
0.0101543
5.20446e-07
9.30624e-08
0.0320679
0.00317198
0.0350954
0.0378758
4.01405e-08
0.0368581
0.0411492
0.0482341
2.71876e-06
0.0973372
0.00224281
0.00209395
4.95362e-07
6.45317e-07
8.27184e-07
0.00582455
0.0049202
0.0467274
6.01525e-08
0.0662144
4.07492e-07
0
3.25357e-06
3.78784e-06
0.000403735
0.041391
0.0468194
4.54854e-08
0.0362339
8.98663e-07
0.101713
0
0.0561691
0.042545
0.0035568
0.000217755
7.66088e-06
0.0765288
0.0239334
0.000166294
0.02768
0.0317529
0.000222813
0.0632464
0.00859918
0
4.58018e-06
0.11929
0
0
0.0113711
0
0.0124988
0.00670096
0
2.18906e-08
0.0073898
0.00887764
0.00715482
0
0
0
0.0514265
5.98497e-06
0.124412
0.117622
5.11479e-06
5.64652e-07
0.0181628
0.0190115
0.0162636
4.89969e-08
7.72121e-08
1.14724e-07
6.93404e-08
0.0447923
1.0251e-05
0
0.113877
0
0.00188308
0.00407308
0.0460808
0.0522237
2.05715e-08
0.043584
4.39142e-09
0.000604208
0.00146671
0.0344095
0.0291945
0.103862
0.0949796
0.0192071
8.36053e-05
0.125634
0.127392
0.132511
0.12579
0.0135679
0
0.0117364
0.00458175
8.41969e-05
0.00220405
0.00241695
0.039862
0.000272304
0.0356367
0.040524
2.7706e-09
0.0330963
0.00155481
5.45737e-07
7.29446e-07
6.98908e-07
0.00722436
3.7362e-05
0.00412392
0.00453228
2.25109e-06
2.75299e-06
2.69092e-06
0.0177431
6.32173e-08
1.80145e-08
0.0368499
4.53885e-08
0.046938
3.19658e-08
0.02798
0.0978533
2.20155e-06
0
0.045377
0.00513111
9.56128e-09
0.123816
0.00525437
5.33152e-05
6.5866e-05
1.05677e-08
0.00612045
0.00368337
0.0075411
0.000123181
0.0132187
0.00755572
1.18501e-08
4.00966e-09
0.013029
6.83389e-09
0.0168579
0.000730242
4.67608e-10
6.25103e-05
6.31628e-05
6.4136e-10
7.7928e-05
0
0.00201015
3.93919e-06
0.00018118
0.0186718
0.00263497
1.57493e-06
1.28394e-06
1.14147e-06
7.72886e-06
0.00614468
2.42886e-05
1.81116e-05
0.0153778
0.022393
1.02386e-10
0.0051929
0.00110619
8.92535e-06
0.00482834
7.063e-06
0.000712867
5.19634e-06
1.07944e-06
0.00467837
0.00829389
0.0140566
3.59633e-05
7.67125e-06
0.00800326
0.0107418
1.67996e-05
0.00834106
4.66257e-07
0.0405626
0.00304384
0.0241187
0.002819
0.0226474
0.0552898
0.0487418
2.2213e-06
0.00450349
0.071121
0.0631416
0
0.0382272
0.0014877
0.00203155
0.0123376
2.51469e-09
0
0
0
3.17742e-06
0.0139689
1.36083e-09
0.0127092
5.09235e-09
0.0483194
0.0434355
0.0411634
5.00138e-05
4.08057e-05
4.39411e-05
0.000350034
0.0103518
0.00532387
0.00987876
0
1.19315e-09
7.70317e-10
0.0113615
0.000277785
4.46739e-09
0.0251203
2.64965e-09
0.0343957
0.00440502
6.22095e-10
0.000422214
1.3092e-06
4.62115e-05
0.0151635
5.62749e-05
0.00053931
0.0393158
0.000448425
0.0401896
0.000173867
2.01316e-08
0.0278726
0.0227871
0.000570516
0.0446805
0.0367622
0.0450142
2.37512e-07
2.87291e-07
0.0569375
0.00465645
0.000727582
6.04283e-08
0.0526341
0.00913845
0.000306376
0.0110436
0.000475458
1.00751e-08
0.0153385
0.0588863
1.75111e-07
0.00884553
0.0041576
0.00265122
0.00591592
0.000187239
0.000851432
0
0.000823106
2.76233e-09
0.000192053
0.0126834
0.000307747
0.0141164
9.62756e-07
2.55391e-06
2.26124e-06
0.0457529
2.31579e-06
0.00562107
1.28014e-07
0.00799093
5.3164e-06
9.73841e-08
8.74419e-10
1.0746e-07
6.26743e-08
2.30397e-08
0
0.0691043
0.00788038
1.36057e-05
0.0061826
1.54026e-06
1.84995e-06
0.0116322
2.49021e-06
0.0114358
0.00946136
0.00538815
0.00732998
0.101641
6.48961e-06
9.21493e-08
4.96706e-06
0.00596197
1.37457e-07
1.77022e-07
1.50201e-07
0.00238399
0.00573804
0.0616977
4.13445e-06
0.00398865
0.00305533
0
7.01465e-08
5.7416e-08
4.814e-10
0
2.01178e-09
0.0254574
3.73229e-10
6.77347e-05
0
5.70062e-10
6.48428e-05
9.12626e-07
0.00193742
0
0.00897697
0
3.75362e-05
0
0
0.0154654
0.019161
0.0232421
0.0100578
8.21869e-06
1.27563e-05
0
1.15306e-05
0
5.28256e-05
0.00217451
0
4.62607e-06
0.0431454
0.00128838
7.7907e-08
5.82651e-08
0.00811343
0.000483349
6.00522e-08
4.44286e-08
0.0468416
1.87501e-07
1.46446e-07
1.37083e-07
1.11086e-07
0.0539695
0.003722
1.776e-07
6.0894e-10
0.00465494
3.41141e-08
0.030304
1.43743e-07
3.25469e-08
0.0325301
1.14943e-07
0.0413801
6.32661e-08
1.0619e-07
0.00302112
0.000238655
0.124439
0.0286563
0.000239584
0.000171689
0.0235561
2.5488e-08
0.0199613
3.53523e-08
0.000238298
0.109958
0.0003474
0.0971822
0.000188899
0.000488925
0.000255562
0.000526158
5.17706e-08
5.42188e-08
0.0539187
0.000203779
0.00417277
0.000184294
0.00258955
0.000224524
0.000168031
0.128924
0.000269088
0.000233991
0.00127534
0.00129454
0.00173559
0.0652314
1.80601e-07
8.50691e-08
0.0593804
2.19235e-08
7.45587e-09
3.6934e-08
0.00253262
0.00015437
2.06559e-06
0.00291807
0.00264024
0.00381365
1.22811e-06
0.00341137
0.000191141
0.0248246
3.50484e-08
0.000146294
0.104147
1.71091e-08
0.00425479
3.50749e-06
0.000848828
0.000826846
9.02878e-09
1.44879e-08
0.00340919
5.69092e-09
0.00182069
0.0406744
1.30163e-08
0.0809931
0.0887573
0
5.9983e-08
8.2334e-08
0.140159
1.85808e-07
0.000342704
0.0224516
4.893e-08
0.0319955
7.09635e-08
4.62378e-08
2.34239e-08
3.01819e-08
0.022889
0.00487225
3.69297e-08
0.0174348
0.000247739
0.0781888
0.075352
0.0746961
0.0151321
0.0135495
0.0147781
2.41648e-06
0.0218128
2.01452e-06
9.49518e-08
1.78201e-08
0.0147988
2.70491e-08
3.36494e-08
5.32846e-08
0.00691396
6.76016e-08
4.44581e-08
1.30366e-08
1.88721e-08
2.91848e-08
4.58039e-08
0.00496576
1.01021e-08
1.23699e-08
0.12473
4.52368e-05
0.127229
0.0185224
0.000419954
0.00036817
0.0271607
0.0216209
0.00097186
0.141512
0.0123093
0.0392195
0.0210222
1.31319e-09
2.16043e-09
0
3.98026e-05
0.0265191
0.0302169
4.92926e-09
0
0.000115727
7.31325e-09
9.02578e-05
0.000292041
5.86522e-05
0.00389187
0.00941011
4.53886e-05
6.46788e-08
6.5362e-07
0.0744594
6.95396e-08
7.61687e-07
0
0
0
3.79709e-07
0.0686239
1.116e-07
0.0605888
4.15909e-06
0.00183718
0.00195655
0.00248665
0.0463801
0.0491413
0.0481112
0.00545796
0
0.000725725
0.0523838
0.0774702
0.0452328
1.18076e-08
0.00266058
0.050505
0.056096
3.32103e-08
0.00100468
0.051614
0.0629507
0.00153117
1.52701e-06
0.0334475
0.0168151
0.0140808
0.00438339
0.0111137
4.91701e-05
0.00794608
2.2364e-05
0.00568223
0.00684398
0.0814048
0.0890984
0.134284
0.137526
0.141454
0.0134407
0.00969994
0.106265
0.113756
5.61992e-06
3.36064e-05
0.114396
0.117448
0.00688244
0.00727658
0.00621024
0.0972776
0.105201
0.0315174
0.110251
0.00396189
0.00463121
0.00547934
0.0854724
0.093516
0.0993803
7.55163e-07
4.60716e-07
0.000923705
0.0801066
0.0793234
0.0862819
0.00416497
0.0867861
0.0997384
0.0938611
2.34854e-07
0.00214242
5.81183e-05
0.0027079
0.00504395
9.40084e-07
0.0579896
0.0655465
0.0714285
1.65006e-08
3.9947e-08
2.25134e-08
2.60043e-08
0.000984131
0.00073239
1.62707e-09
0.00647987
1.34652e-05
1.44516e-09
2.84534e-09
8.18068e-05
7.26119e-09
0.00402336
0.106796
0.000175616
0.000106088
0.000113003
9.04545e-05
0.000174101
0.000152896
0.000131863
0.000135613
4.4384e-08
0.000182723
0.000165359
0.00509346
0.0062748
3.43251e-05
6.09609e-05
0
0.00457882
0
0.00361752
0.00443672
0.0137135
8.27072e-05
7.30472e-05
1.23193e-08
1.09404e-05
1.40038e-06
0.00458022
2.26955e-05
8.24665e-07
0.00314296
1.1761e-09
0.00472741
2.27087e-10
5.38835e-09
0.00363444
4.86575e-06
0.00375282
2.95379e-09
0.0269621
0.00546262
1.56563e-05
6.54345e-06
0.00422027
9.46962e-10
7.43797e-05
0.00237627
6.54161e-05
7.22079e-05
0.00459877
8.8032e-05
0.035313
0.0360095
1.54501e-08
0.00230218
0.00386949
1.55821e-08
8.28776e-09
0.0707286
0.014945
0.0185821
1.80686e-10
0.0126828
3.54542e-10
3.14184e-05
0.0282456
0.0289737
0.0242267
7.80424e-05
7.07311e-05
0.0183108
0.00488267
0.00406811
3.15731e-07
0.0105957
0.0125146
0
6.08586e-06
0.108252
0.00356276
1.57334e-07
1.22587e-06
0.073703
0.0031211
0.000508551
0.0433728
0.0471367
0.000970621
0.0458617
1.66823e-08
0.00865306
0.000142646
0.00106531
0.0496194
3.24748e-07
0.0546649
0.00456987
5.47445e-08
0
0.0143358
6.48982e-07
0.0383471
1.4277e-06
3.63164e-06
0.00425229
3.21036e-06
0
0
0
4.28154e-06
1.63259e-06
0
0.015733
0
0.0081589
1.19065e-06
1.32109e-06
0
7.05549e-06
0.00623816
0.00896204
1.51006e-05
0
0
0.00410988
0.00484505
0.00384096
0.0668166
0.00357803
0
0
0.0034156
0.00430711
6.14847e-05
0.00277883
0.00283019
1.60391e-09
0
8.41663e-07
0.00366685
9.0407e-07
5.53335e-07
0.00498237
8.26957e-06
3.58347e-06
0.00368895
0.054773
0.0638583
0
5.1186e-07
0.0906723
6.49703e-07
6.4139e-07
1.22082e-06
0.0663546
8.8844e-06
7.31506e-07
3.20159e-07
1.42562e-05
0.00957477
1.07562e-06
0.0107661
0.00751693
0.0634964
2.49916e-10
0.0057723
0.00692529
0.00843216
0.0140222
4.89509e-05
0.0101509
2.54574e-05
1.2324e-05
0.00716554
0.00423848
9.71479e-07
0.00425804
4.56919e-06
0.00458594
0.063524
0
0.000272315
8.03391e-10
0.000204255
4.26515e-07
8.15512e-07
0.000439191
1.41863e-05
0.000661892
0.0117807
2.82909e-10
1.25982e-10
1.15853e-07
0.062383
0.0705728
0
0.00391447
3.83713e-10
0
1.05955e-10
0.00311597
2.82508e-06
0.00303466
0
0.0589507
1.19183e-06
0
0.00543274
0.00738582
0.131182
0.0256132
0.133583
0.12679
0.0362983
0.131601
0.00523608
6.41144e-06
0.115273
0.0178022
2.79823e-06
0.107593
0.109599
1.65269e-07
0.00158874
6.27599e-06
0
0.00447844
0.021696
0.00013415
7.3535e-05
0.0175072
0.139132
0.000439993
0
0.0148787
5.05701e-06
0.104329
0.124701
0.0309625
0.128652
0.0413893
0.000350082
0.00120909
0.122319
0.00569936
0.000967625
0.0271633
0.000140819
0.000255448
0.00542933
2.59063e-06
0.0108517
0.000111397
0.00396309
4.85285e-06
0.112711
0.00268869
2.60275e-05
1.13483e-05
0.0046418
0.0133155
1.40897e-10
0.0455751
5.16264e-09
1.11924e-09
4.44336e-09
0.00108763
1.6874e-09
0.00645667
5.65111e-05
0.0028619
0.0604365
1.99397e-05
0.0144561
0.0058014
9.81702e-06
2.47516e-08
1.85649e-09
6.77057e-08
0.00169585
0
0
0
1.29333e-06
0.0662685
7.81413e-05
0.0992036
0.0498154
0.0698381
1.21209e-05
1.91488e-06
0.0801189
0.00368654
2.59338e-06
0.0574109
0.0651357
1.11394e-05
8.86245e-07
3.05051e-09
1.06773e-06
1.22016e-05
0.00442403
0.0647702
0.0529893
0.0789642
6.76284e-07
5.02336e-07
5.89743e-07
7.7946e-07
0.0125827
0.0526993
0.00334162
0
0.0155837
0.0673934
0
0.000326407
0.0917875
1.95333e-07
0.0679261
0.00321326
0.00391519
0
2.74343e-07
0.000202474
0.0128668
0
0.0158652
1.41238e-08
0.0209876
8.83558e-05
0.000914916
0.0157709
0
1.48221e-08
3.05013e-07
0.000569366
0.0184675
9.09561e-05
1.44357e-08
0.014623
0.0352915
1.04128e-07
1.85058e-05
0.0129233
0.0161571
4.15145e-05
2.6592e-09
0.000797964
0.0114973
0
0.000282611
0
4.77016e-07
4.65523e-07
0
2.74052e-06
0
0.001572
0.0312384
0.0123035
5.34325e-10
0.00904582
7.67663e-08
0.000561504
0.00643476
5.14015e-06
3.91064e-07
0.111217
0.00016321
2.41231e-08
0.0105913
3.31218e-09
0.026111
0.000286016
0.00124466
0.0577873
1.0376e-06
0.013213
1.13627e-06
0.0199835
0.000696305
1.11635e-07
1.99449e-08
0.0262311
1.68137e-09
1.32293e-07
5.86983e-09
0.0216908
2.72243e-10
0.0638594
1.66345e-06
0.00223856
0.00372838
3.66604e-06
8.91802e-07
1.34922e-08
3.537e-07
0.00264376
7.12611e-06
0.0916387
0.0633373
3.98506e-05
0.00215098
2.64123e-06
0.00331426
0.00492542
0.051522
0.00118776
0.00289864
2.12108e-06
0.0180268
0.00598269
0.000845247
0.0517756
0.00115773
0
0.00834556
0.0580022
0
0.00165657
7.31696e-08
0.0571888
0.00479459
0
1.95876e-06
0.0526449
0.0576339
1.12412e-06
3.30501e-06
0.000438554
0.00162251
0
0.042002
0.000570723
0.00220842
1.17473e-06
6.56489e-06
0
3.60354e-05
0.00443113
0
0.00081431
0
0.0632387
0.019936
2.78451e-08
0.00166798
0
0.0196977
0.00404722
0.0113877
0.0151465
0.00544851
0
1.56161e-06
0.000158143
0.00012066
8.21402e-10
0
1.40202e-08
1.16513e-07
1.52645e-06
0.0722877
0
5.71888e-08
0.0582946
0.0463051
3.21809e-08
0.0795741
0.00220361
0.0733522
0.0652922
0.00845906
0.043805
0.01571
0.117112
0.00116325
0.0588727
9.34521e-08
0.1061
1.23922e-05
4.59972e-08
0.0342691
3.67748e-05
5.60796e-05
0.0133251
6.1415e-07
0.00993978
2.19857e-05
3.62907e-05
2.99818e-09
2.50564e-07
0.0503681
0.0459128
5.86177e-06
0.0100089
0.00696276
0.00182711
0
0.0525439
0.000849279
0
0.0155227
0.00393315
0.0443649
0.00847225
0.00314646
0.00333375
1.04049e-07
0.0424483
1.85853e-07
7.81484e-08
0.00023116
0.00130391
0
0.123978
7.94631e-05
0.00200627
0.00051307
0
0.00405204
0.00643353
0
0
0.000147016
0
3.34215e-08
6.89487e-09
0.0179188
0.000337127
0.0050896
0
0
0.00321126
0
0
0.00471483
0
0.00689471
0
0
1.42376e-06
0.00221382
0.00354966
3.16488e-06
3.08501e-10
0
0.017443
0.0180121
0.000101209
0.0217965
0.0299836
0.000145898
0
1.34796e-08
0.0018257
0.000749263
1.6252e-10
2.28542e-10
1.04098e-09
0.00260304
7.02558e-05
7.31106e-06
3.2357e-05
0
2.05061e-08
1.02347e-10
2.29718e-09
0
0.00166923
2.52227e-05
0
4.62583e-05
0.0168367
0.000105198
0.000106891
0.0466122
0.0641129
8.85539e-05
0
0.000355897
0
0.0645686
0
2.11431e-05
0.0144786
4.97943e-05
8.35049e-08
0.0432376
4.19504e-07
0
0.0147976
8.89075e-05
0.0362652
0.0017823
0.0226258
0.0432198
0.0001245
1.95771e-06
4.98626e-06
0.0690542
0.0694298
0.00121221
6.38517e-07
0.00481255
5.75743e-06
0
0
1.84728e-07
0.000238059
0.0307772
0.0332757
0.000428313
0.00420045
2.42557e-06
0
0.119944
0.0325893
0.0197624
0
0.0521286
0.000203649
0.119186
9.96626e-08
0.0270337
0.00184839
0.134699
0.00385563
0
0.00992295
3.59585e-06
0.131173
0.0171852
0.00949152
0.00370297
7.39166e-08
4.94607e-08
0
1.18739e-05
0.00735426
0.000151716
3.9199e-05
2.52116e-08
0
0.00404596
5.44039e-07
0.0162077
0.103272
0.0961371
0.0974677
0.126854
3.16319e-05
0
0.118641
0.123487
0
2.83222e-06
0.00631561
0.00950319
6.19673e-06
6.29209e-09
0.13155
0.000337742
0.0246984
9.27348e-08
0.0199959
1.64931e-08
2.02501e-08
3.04399e-05
0.117723
2.51521e-10
0.127259
0.0198645
0.000130946
0.0720265
0.00627477
0.0125042
0
0.13121
0.0790039
0.0733421
0.00328798
0.106113
0.0259064
0.00098582
0.128537
0.0318838
5.19708e-09
0.107397
7.60822e-08
0.000144403
0.130116
0.0743162
2.93277e-06
0.135807
0.107748
0.0001064
0.0282879
0.0294347
0.000146171
0.137546
0.0186829
0.000821322
0.004039
0.0519905
0.107101
0
0.0585078
1.1878e-07
2.76487e-05
9.42895e-09
0.00436407
2.05885e-05
0.0185754
2.40609e-07
0.0380496
0
0.00768358
0.0737594
0.0026454
0.00166196
0.0668068
0.001677
0.0063044
0.0108586
1.80344e-10
0.135111
0.0249108
0.00451408
0.000174562
0.0117328
0.0176443
2.97272e-09
0.11469
0.00953992
5.60662e-06
0.000237717
0.00748808
0
0.00434756
3.46029e-06
0.00272824
0.0328974
0.000166145
0.000982146
4.29196e-06
9.30049e-06
0.0141047
0.016063
0.120781
8.70077e-08
0.0389751
0.0110678
0.0525486
0.104763
0.0011398
0.145898
7.21044e-06
2.63715e-06
0.0193581
5.04188e-05
0.0084246
6.89356e-06
0.128558
8.19939e-09
0.000260334
0.137402
0.0371524
0
0.00491333
0.0110302
0.0108717
0.0216743
0
0.00130189
3.41291e-05
0.0336038
4.61404e-08
0.0309507
0.000164614
3.33511e-07
0.000610416
0.00121314
7.47729e-07
0.0996289
4.13485e-07
0.000174562
0.0329133
3.50504e-08
0.00353655
0.103169
0.00327327
3.78171e-08
0.000199394
0.128335
3.83619e-07
0.030058
4.71951e-07
6.35925e-07
0.0158955
0.0212004
0.000223485
0.00629849
0
0
9.86289e-06
0.000626743
0.008723
0
0.00550661
0.00790024
1.59771e-05
3.61531e-09
1.51555e-06
2.69598e-05
4.24012e-06
0.0609379
1.27922e-06
0.108933
3.87443e-07
3.75382e-07
0
1.48671e-06
0
0
0.00436888
0.0875212
6.71616e-06
0
0.0805436
2.4483e-05
2.70626e-06
2.52823e-05
3.71007e-10
0.0189673
0.0789099
8.08468e-05
0.0161994
0.0647362
8.695e-06
1.33439e-05
1.09157e-09
0.0024611
4.84956e-07
2.20383e-07
0.00091281
0.0315633
1.13468e-05
0.00762117
3.27671e-06
0.00555613
0.0208965
0.137992
4.88864e-10
0.0033244
0.113967
0.0162827
0.0249969
0.000116379
0.111308
0.0940296
0.0235883
0.00421067
0.0784803
1.00413e-05
2.26002e-05
0.00125936
0.000450841
0.0210449
5.30944e-08
0.000981225
0.033854
0.00174418
0.0345089
6.96779e-08
2.79185e-08
0.000958619
0.0527285
0.000876711
0.000349883
0.0409665
0.00919825
0.113441
0.0731559
0.000218691
0.0218017
0.118224
0.141632
0.00480656
0
0.017212
0.000126224
0.0262054
0
0.014189
2.3324e-06
0.128479
1.09479e-05
0.00742361
4.37257e-06
3.04317e-10
0.00284406
1.38557e-06
0.00601037
0.141985
1.12438e-06
0.00016234
3.77423e-06
0.0919562
2.88144e-05
2.49367e-08
3.91523e-07
0.00281038
0.0854206
0.0914799
0.0404336
0.00406026
7.68602e-06
0.123488
0.0265638
0.112242
0.0662261
0.0470981
4.75903e-08
0.000382953
0.024682
0.0106644
0.00231738
0.0407716
0.0825527
0.116946
7.39766e-10
4.63597e-08
0.0315744
0.000189226
0.00012242
0.023904
0.0166498
1.76883e-06
0.00311758
0.111823
0.113619
0.0524085
0.0596318
1.04976e-07
0.11677
5.23302e-06
0.0592394
1.14681e-07
0.109247
2.00272e-08
0.00401707
1.08211e-08
0.0631819
0.00328772
0.000111465
1.11251e-05
0.00652159
0.00891588
0.000106582
0.00498808
9.67964e-09
0.025594
7.75409e-05
1.75975e-10
4.66831e-09
0.0501744
0.00310694
1.89153e-09
0.0463922
3.04177e-07
0
0
0.0272079
2.29694e-08
0
0.00197201
0.00371356
1.38226e-06
0.00449292
5.07449e-06
0
4.07434e-05
2.68265e-06
4.12453e-06
0.00252573
8.18394e-07
0.0586419
8.17486e-07
0
0
0.0108368
0.000105927
9.19882e-07
2.36339e-07
0.0461081
0
0.00387102
0
0.0405578
0.00390897
2.94353e-07
0.0368784
0.00210486
0
0
0.00261481
0.113905
2.31075e-07
0.0120768
2.83748e-05
5.30875e-10
0.00514822
0.0650197
0.00526729
0.0722616
0.00558595
0.0127798
0.000175963
0.0655282
0.00453506
1.98308e-08
2.13071e-07
4.01356e-06
0.118354
1.64862e-05
3.41427e-06
0.114511
1.76893e-07
0.0447508
0.0483125
0.145646
0.000569594
6.4357e-10
8.83102e-09
0.0128469
0.00390696
0
8.54425e-05
0.000103836
0.0561629
0.031197
0.00286943
0.0074598
0.0208186
8.75447e-05
0.000687599
0
0
0.0318548
0
0.00635415
0.00405092
4.96749e-07
7.67211e-09
0.00411153
0.138833
0.0403357
1.99232e-07
3.20743e-07
2.58372e-07
3.04677e-07
0.00108711
1.68599e-07
0.00102927
0.000196163
0.141832
1.66073e-08
0.0475766
2.12322e-07
0.00146454
2.74411e-07
2.87005e-08
3.0288e-07
0.116393
0.0906491
3.4332e-07
0.00114285
1.24516e-06
0.000892894
0.0596664
1.44149e-07
1.65658e-06
0.00520525
0.00755692
7.82038e-05
0.00378828
1.91902e-07
0.0433995
0.00095468
0.00692773
2.60606e-06
1.19254e-06
0.00415747
0.086734
3.77065e-06
0
0
8.60737e-07
1.46021e-05
2.35131e-06
0.0064597
0.0558821
0.0501806
3.03043e-09
0.00377666
0.000705663
0.000669824
0.130421
0
0.00425866
0
0.00379964
0.0574117
1.04218e-06
0
2.68947e-07
1.90184e-08
0.0455981
0.0430885
0.00215458
0
0
0.00415591
4.34758e-06
6.16804e-06
0.0762236
0.00456089
0.00710617
5.4625e-10
9.59369e-07
0.00141635
0.000141142
0.111925
0.0366274
0.11071
7.23746e-10
4.17505e-09
5.63026e-09
1.59484e-09
3.1253e-07
2.1896e-09
0.000472694
0.0004845
0.00724315
0.0826592
0.0167814
0.0072202
8.51564e-06
1.35817e-10
2.06912e-05
0.000195482
5.90574e-06
1.32081e-06
0.00425561
8.70792e-08
0.00183887
0.00264682
0.00535298
0.000129847
0.00227051
0.0683038
0
0
8.53793e-08
0.0449869
0.0516539
5.10597e-07
3.74845e-08
0.0456827
2.14606e-08
0.0444241
0.0717209
0.0427767
0.0448022
1.36586e-10
1.40014e-07
0.0339608
0.00324327
0.000143595
0.013059
4.72898e-09
0
0.00469697
3.71104e-05
5.19867e-05
3.85069e-05
0.0322105
7.14708e-10
0.0309384
0.0383913
8.82921e-06
0