# vtk DataFile Version 2.0
Unstructured Grid by M++
ASCII
DATASET UNSTRUCTURED_GRID
POINTS 4072 float
  0.609375   0.843750 0
  0.562500   0.843750 0
  0.531250   0.843750 0
  0.875000   0.828125 0
  0.984375   0.828125 0
  0.953125   0.828125 0
  0.937500   0.828125 0
  0.843750   0.828125 0
  0.812500   0.828125 0
  0.781250   0.828125 0
  0.765625   0.828125 0
  0.734375   0.828125 0
  0.703125   0.828125 0
  0.671875   0.828125 0
  0.640625   0.828125 0
  0.609375   0.828125 0
  0.593750   0.828125 0
  0.562500   0.828125 0
  0.546875   0.828125 0
  0.531250   0.828125 0
  0.515625   0.828125 0
  0.968750   0.812500 0
  0.937500   0.812500 0
  0.921875   0.812500 0
  0.890625   0.812500 0
  0.859375   0.812500 0
  0.828125   0.812500 0
  0.796875   0.812500 0
  0.765625   0.812500 0
  0.750000   0.812500 0
  0.718750   0.812500 0
  0.687500   0.812500 0
  0.656250   0.812500 0
  0.625000   0.812500 0
  0.593750   0.812500 0
  0.578125   0.812500 0
  0.546875   0.812500 0
  0.531250   0.812500 0
  0.515625   0.812500 0
  0.984375   0.796875 0
  0.562500   0.015625 0
  0.953125   0.796875 0
  0.921875   0.796875 0
  0.906250   0.796875 0
  0.875000   0.796875 0
  0.843750   0.796875 0
  0.812500   0.796875 0
  0.781250   0.796875 0
  0.750000   0.796875 0
  0.734375   0.796875 0
  0.703125   0.796875 0
  0.671875   0.796875 0
  0.640625   0.796875 0
  0.609375   0.796875 0
  0.578125   0.796875 0
  0.562500   0.796875 0
  0.531250   0.796875 0
  0.515625   0.796875 0
  0.968750   0.781250 0
  0.546875   0.000000 0
  0.937500   0.781250 0
  0.906250   0.781250 0
  0.890625   0.781250 0
  0.859375   0.781250 0
  0.828125   0.781250 0
  0.796875   0.781250 0
  0.765625   0.781250 0
  0.734375   0.781250 0
  0.718750   0.781250 0
  0.687500   0.781250 0
  0.656250   0.781250 0
  0.625000   0.781250 0
  0.593750   0.781250 0
  0.562500   0.781250 0
  0.546875   0.781250 0
  0.515625   0.781250 0
  0.984375   0.765625 0
  0.953125   0.765625 0
  0.921875   0.765625 0
  0.890625   0.765625 0
  0.875000   0.765625 0
  0.843750   0.765625 0
  0.812500   0.765625 0
  0.781250   0.765625 0
  0.750000   0.765625 0
  0.718750   0.765625 0
  0.703125   0.765625 0
  0.671875   0.765625 0
  0.640625   0.765625 0
  0.609375   0.765625 0
  0.578125   0.765625 0
  0.593750   0.750000 0
  0.562500   0.765625 0
  0.546875   0.765625 0
  0.531250   0.765625 0
  0.562500   0.750000 0
  0.968750   0.750000 0
  0.937500   0.750000 0
  0.906250   0.750000 0
  0.875000   0.750000 0
  0.859375   0.750000 0
  0.828125   0.750000 0
  0.796875   0.750000 0
  0.765625   0.750000 0
  0.734375   0.750000 0
  0.703125   0.750000 0
  0.687500   0.750000 0
  0.671875   0.750000 0
  0.656250   0.750000 0
  0.625000   0.750000 0
  0.546875   0.750000 0
  0.531250   0.750000 0
  0.515625   0.750000 0
  0.562500   0.734375 0
  0.984375   0.734375 0
  0.953125   0.734375 0
  0.921875   0.734375 0
  0.890625   0.734375 0
  0.859375   0.734375 0
  0.843750   0.734375 0
  0.812500   0.734375 0
  0.781250   0.734375 0
  0.750000   0.734375 0
  0.718750   0.734375 0
  0.687500   0.734375 0
  0.671875   0.734375 0
  0.656250   0.734375 0
  0.640625   0.734375 0
  0.546875   0.734375 0
  0.531250   0.734375 0
  0.515625   0.734375 0
  0.562500   0.718750 0
  0.968750   0.718750 0
  0.937500   0.718750 0
  0.906250   0.718750 0
  0.875000   0.718750 0
  0.843750   0.718750 0
  0.796875   0.718750 0
  0.765625   0.718750 0
  0.734375   0.718750 0
  0.703125   0.718750 0
  0.687500   0.718750 0
  0.671875   0.718750 0
  0.656250   0.718750 0
  0.625000   0.718750 0
  0.546875   0.718750 0
  0.531250   0.718750 0
  0.515625   0.718750 0
  0.562500   0.703125 0
  0.953125   0.703125 0
  0.921875   0.703125 0
  0.890625   0.703125 0
  0.859375   0.703125 0
  0.828125   0.703125 0
  0.781250   0.703125 0
  0.750000   0.703125 0
  0.718750   0.703125 0
  0.687500   0.703125 0
  0.656250   0.703125 0
  0.546875   0.703125 0
  0.531250   0.703125 0
  0.515625   0.703125 0
  0.984375   0.687500 0
  0.937500   0.687500 0
  0.921875   0.687500 0
  0.906250   0.687500 0
  0.875000   0.687500 0
  0.843750   0.687500 0
  0.812500   0.687500 0
  0.765625   0.687500 0
  0.734375   0.687500 0
  0.703125   0.687500 0
  0.671875   0.687500 0
  0.640625   0.687500 0
  0.593750   0.687500 0
  0.562500   0.687500 0
  0.546875   0.687500 0
  0.531250   0.687500 0
  0.515625   0.687500 0
  0.968750   0.671875 0
  0.937500   0.671875 0
  0.921875   0.671875 0
  0.906250   0.671875 0
  0.890625   0.671875 0
  0.859375   0.671875 0
  0.828125   0.671875 0
  0.796875   0.671875 0
  0.765625   0.671875 0
  0.750000   0.671875 0
  0.718750   0.671875 0
  0.687500   0.671875 0
  0.656250   0.671875 0
  0.625000   0.671875 0
  0.593750   0.671875 0
  0.578125   0.671875 0
  0.546875   0.671875 0
  0.531250   0.671875 0
  0.515625   0.671875 0
  0.984375   0.656250 0
  0.953125   0.656250 0
  0.937500   0.656250 0
  0.921875   0.656250 0
  0.906250   0.656250 0
  0.875000   0.656250 0
  0.843750   0.656250 0
  0.812500   0.656250 0
  0.781250   0.656250 0
  0.750000   0.656250 0
  0.734375   0.656250 0
  0.703125   0.656250 0
  0.671875   0.656250 0
  0.640625   0.656250 0
  0.609375   0.656250 0
  0.578125   0.656250 0
  0.562500   0.656250 0
  0.531250   0.656250 0
  0.515625   0.656250 0
  0.968750   0.640625 0
  0.937500   0.640625 0
  0.906250   0.640625 0
  0.890625   0.640625 0
  0.859375   0.640625 0
  0.828125   0.640625 0
  0.796875   0.640625 0
  0.765625   0.640625 0
  0.734375   0.640625 0
  0.718750   0.640625 0
  0.687500   0.640625 0
  0.656250   0.640625 0
  0.625000   0.640625 0
  0.593750   0.640625 0
  0.562500   0.640625 0
  0.546875   0.640625 0
  0.515625   0.640625 0
  0.984375   0.625000 0
  0.953125   0.625000 0
  0.921875   0.625000 0
  0.890625   0.625000 0
  0.875000   0.625000 0
  0.843750   0.625000 0
  0.812500   0.625000 0
  0.781250   0.625000 0
  0.750000   0.625000 0
  0.734375   0.625000 0
  0.718750   0.625000 0
  0.703125   0.625000 0
  0.671875   0.625000 0
  0.640625   0.625000 0
  0.609375   0.625000 0
  0.578125   0.625000 0
  0.562500   0.625000 0
  0.546875   0.625000 0
  0.531250   0.625000 0
  0.968750   0.609375 0
  0.937500   0.609375 0
  0.906250   0.609375 0
  0.875000   0.609375 0
  0.859375   0.609375 0
  0.828125   0.609375 0
  0.796875   0.609375 0
  0.765625   0.609375 0
  0.750000   0.609375 0
  0.734375   0.609375 0
  0.718750   0.609375 0
  0.703125   0.609375 0
  0.687500   0.609375 0
  0.656250   0.609375 0
  0.625000   0.609375 0
  0.593750   0.609375 0
  0.562500   0.609375 0
  0.546875   0.609375 0
  0.531250   0.609375 0
  0.515625   0.609375 0
  0.984375   0.593750 0
  0.953125   0.593750 0
  0.921875   0.593750 0
  0.890625   0.593750 0
  0.859375   0.593750 0
  0.843750   0.593750 0
  0.812500   0.593750 0
  0.781250   0.593750 0
  0.750000   0.593750 0
  0.734375   0.593750 0
  0.718750   0.593750 0
  0.687500   0.593750 0
  0.671875   0.593750 0
  0.640625   0.593750 0
  0.609375   0.593750 0
  0.578125   0.593750 0
  0.562500   0.593750 0
  0.546875   0.593750 0
  0.531250   0.593750 0
  0.515625   0.593750 0
  0.968750   0.578125 0
  0.937500   0.578125 0
  0.906250   0.578125 0
  0.875000   0.578125 0
  0.890625   0.562500 0
  0.843750   0.578125 0
  0.828125   0.578125 0
  0.796875   0.578125 0
  0.765625   0.578125 0
  0.734375   0.578125 0
  0.703125   0.578125 0
  0.671875   0.578125 0
  0.656250   0.578125 0
  0.656250   0.562500 0
  0.625000   0.578125 0
  0.640625   0.562500 0
  0.593750   0.578125 0
  0.562500   0.578125 0
  0.546875   0.578125 0
  0.531250   0.578125 0
  0.515625   0.578125 0
  0.859375   0.562500 0
  0.828125   0.562500 0
  0.781250   0.562500 0
  0.750000   0.562500 0
  0.718750   0.562500 0
  0.687500   0.562500 0
  0.609375   0.562500 0
  0.578125   0.562500 0
  0.562500   0.562500 0
  0.546875   0.562500 0
  0.531250   0.562500 0
  0.515625   0.562500 0
  1.000000   0.812500 0
  0.578125   0.031250 0
  0.875000   0.546875 0
  0.625000   0.546875 0
  0.218750   0.000000 0
  0.640625   0.781250 0
  0.828125   0.093750 0
  0.031250   0.531250 0
  0.296875   0.328125 0
  0.296875   0.312500 0
  0.281250   0.312500 0
  0.765625   0.312500 0
  0.031250   0.859375 0
  0.093750   0.265625 0
  0.109375   0.250000 0
  0.187500   0.671875 0
  0.421875   0.640625 0
  0.031250   0.062500 0
  0.140625   0.125000 0
  0.562500   0.906250 0
  0.125000   0.437500 0
  0.203125   0.937500 0
  0.125000   0.421875 0
  0.140625   0.406250 0
  0.093750   0.437500 0
  0.109375   0.421875 0
  0.093750   0.421875 0
  0.109375   0.406250 0
  0.328125   0.125000 0
  0.750000   0.906250 0
  0.328125   0.109375 0
  0.750000   0.890625 0
  0.312500   0.125000 0
  0.734375   0.906250 0
  0.281250   0.343750 0
  0.265625   0.359375 0
  0.500000   0.796875 0
  0.078125   0.015625 0
  0.062500   0.015625 0
  0.484375   0.796875 0
  0.484375   0.781250 0
  0.062500   0.000000 0
  0.015625   0.250000 0
  0.062500   0.046875 0
  0.484375   0.828125 0
  0.484375   0.812500 0
  0.062500   0.031250 0
  0.281250   0.671875 0
  0.062500   0.234375 0
  0.328125   0.765625 0
  0.312500   0.750000 0
  0.015625   0.671875 0
  0.781250   0.187500 0
  0.015625   0.265625 0
  0.453125   0.250000 0
  0.453125   0.234375 0
  0.031250   0.265625 0
  0.046875   0.250000 0
  0.093750   0.015625 0
  0.265625   0.656250 0
  0.734375   0.281250 0
  0.156250   0.015625 0
  0.062500   0.265625 0
  0.046875   0.281250 0
  0.031250   0.281250 0
  0.343750   0.781250 0
  0.328125   0.781250 0
  0.265625   0.687500 0
  0.265625   0.703125 0
  0.156250   0.109375 0
  0.578125   0.890625 0
  0.484375   0.984375 0
  0.062500   0.203125 0
  0.328125   0.718750 0
  0.343750   0.734375 0
  0.343750   0.750000 0
  0.453125   0.500000 0
  0.437500   0.500000 0
  0.234375   0.093750 0
  0.171875   0.375000 0
  0.437500   0.531250 0
  0.468750   0.546875 0
  0.453125   0.546875 0
  0.187500   0.015625 0
  0.187500   0.000000 0
  0.609375   0.781250 0
[...]
CELL_DATA 7648
SCALARS scalar_value float 1
LOOKUP_TABLE default
0.0158517
0.0169285
0.01939
0.0153911
0.0332428
0.0316442
0.0341753
0.0291426
0.0161626
0.0186028
0.0197739
0.0164724
0.0149856
0.0134888
0.00444623
0.00394844
0.00416901
0.00325407
2.22643e-05
2.13691e-05
2.53685e-05
1.84404e-05
4.67758e-06
2.06886e-06
2.26329e-06
3.2781e-06
1.78894e-06
0.0307829
0.0319278
1.99981e-07
2.48171e-07
3.35828e-07
1.908e-07
5.52716e-07
6.82291e-07
8.96175e-07
5.54179e-07
1.97952e-07
2.59781e-07
3.46607e-07
1.08203e-07
2.39026e-07
0.0105268
0.0127329
0.0121808
0.0646442
0.0691628
0.0771443
1.51335e-06
0.0921153
0.108033
1.45854e-05
2.16131e-06
2.69998e-06
0.00276199
2.96043e-06
0.00319133
0.00216258
7.25179e-07
1.06005e-06
1.55117e-06
8.15686e-06
3.96974e-06
0.00314401
0.00281727
0
0
1.69748e-06
0.000898477
8.39335e-10
0.000623813
0
0.00219535
0.00360097
0.00423146
0
0.0254038
0
0.0035954
0.00625375
0.00790202
0
7.67486e-10
0
0.078519
6.93526e-07
0.000410825
0.000373631
0.00325305
0
5.88765e-08
0
3.11142e-05
4.12359e-05
0
1.28009e-06
0.0102186
2.28769e-06
0.0139428
0.015694
0.00467472
5.04815e-06
0.00502199
0.00824345
1.13708e-05
0.000319002
0.00302665
0.0732892
0.0608513
3.84266e-08
1.09566e-06
0.000660676
0.000642237
0
5.04086e-05
0
6.31823e-05
3.76778e-05
1.17597e-06
0.0278491
0.0265933
0
0
6.01242e-05
0
0
0
0.0713717
0.0801051
0.0615342
3.10292e-10
0.0291452
0
0.0152725
0.00121665
0.0124544
0.037773
3.46172e-06
5.59572e-07
0.0558603
0.00472966
0.059061
0.0629863
2.41277e-07
0.0604791
0.072972
0.0231912
1.4983e-05
0.0964505
0.00289246
0.00266466
3.82852e-06
4.95442e-06
6.33385e-06
0.00182403
0.00166325
0.0371037
3.61882e-07
0.112557
2.799e-06
0
2.52616e-05
2.92918e-05
0.00179935
0.0776193
0.0822888
2.65449e-07
0.0685397
6.53961e-06
0.0526813
0
0.126526
0.0642609
0.00158521
0.000582821
3.46288e-05
0.050028
0.0524377
0.000834783
0.0594222
0.0640036
0.00107245
0.0807567
0.0290496
0
2.80419e-05
0.135376
0
0
0.0338221
0
0.034735
0.00887867
3.22426e-10
1.75305e-07
0.00943417
0.0113491
0.00886561
0
0
0
0.0567437
3.84936e-05
0.131142
0.123959
3.03013e-05
3.99064e-06
0.0127003
0.0121628
0.0112069
3.89232e-07
6.10998e-07
9.05463e-07
5.48693e-07
0.110771
6.9203e-05
0
0.0553699
0
0.00448802
0.00932207
0.105796
0.113741
1.47525e-07
0.098486
3.03938e-08
0.00162782
0.00338396
0.0787137
0.0691846
0.0844711
0.083176
0.0496204
0.000471304
0.107512
0.104364
0.106714
0.100516
0.0349079
0
0.0304668
0.00144056
0.000529685
0.00271673
0.00284521
0.0994722
0.00152147
0.0901958
0.0978353
2.03548e-08
0.0824611
0.00250721
3.80408e-06
5.0121e-06
4.72891e-06
0.0261068
0.000226721
0.00461783
0.00469085
1.71307e-05
2.06785e-05
2.00032e-05
0.0333854
4.90584e-07
1.37831e-07
0.0960259
2.77788e-07
0.0911627
1.91044e-07
0.0798668
0.15973
1.49924e-05
0
0.0250103
0.00202911
7.35767e-08
0.0698418
0.00680649
0.00034314
0.000421834
8.47129e-08
0.0248211
0.00515057
0.00250629
0.000749615
0.0168502
0.00241746
8.9615e-08
2.14705e-08
0.0248447
3.71627e-08
0.0104716
0.00156019
2.6513e-09
0.000372786
0.000375533
3.54686e-09
0.000459748
0
0.0031425
2.21393e-05
0.00109305
0.00705198
0.00340985
1.21295e-05
9.91162e-06
8.7709e-06
5.14788e-05
0.00865544
0.000163827
0.000125958
0.0297972
0.0144829
7.8212e-10
0.00468014
0.00412105
6.16607e-05
0.00453168
4.95734e-05
0.00284789
3.74531e-05
8.36901e-06
0.0195784
0.0213128
0.031589
0.000187421
4.18869e-05
0.0198127
0.025345
9.00729e-05
0.0174354
3.68639e-06
0.0734219
0.0134654
0.0101593
0.0126327
0.00920868
0.0422523
0.0371252
1.24654e-05
0.0125265
0.053597
0.0461691
0
0.020382
0.00724319
0.00953311
0.00430159
1.35459e-08
0
0
0
2.46772e-05
0.0222957
1.11724e-08
0.0222154
4.15228e-08
0.0243773
0.0219606
0.0200591
0.000268243
0.00022474
0.000246315
0.00201038
0.023531
0.00540312
0.0194389
4.44255e-10
8.4161e-09
5.71945e-09
0.0277785
0.00162656
3.44537e-08
0.0738127
2.01742e-08
0.0904337
0.00201738
4.75121e-09
0.00095187
1.02431e-05
0.000279204
0.0249317
0.000246324
0.00120545
0.0862663
0.00208585
0.086749
0.00104996
1.59025e-07
0.0260316
0.0197867
0.00311265
0.0436599
0.032516
0.05135
1.21652e-06
1.82178e-06
0.0416273
0.00369083
0.00388607
3.12739e-07
0.0667878
0.0198845
0.000753041
0.0224106
0.00265522
7.88171e-08
0.0524405
0.0637168
8.85999e-07
0.00347352
0.00610766
0.00412595
0.00310223
0.00109258
0.00158168
0
0.00151419
2.20958e-08
0.00114088
0.0452347
0.00177963
0.00763725
6.88227e-06
1.98675e-05
1.75887e-05
0.0212442
1.80171e-05
0.00858095
1.02427e-06
0.0189261
2.85645e-05
7.80332e-07
7.19612e-09
8.57515e-07
5.0488e-07
1.86399e-07
0
0.066253
0.0228806
7.897e-05
0.0191518
1.10589e-05
1.4405e-05
0.0192829
1.93917e-05
0.0185358
0.0152038
0.0150528
0.0188318
0.0868348
3.41299e-05
7.48112e-07
2.78167e-05
0.0160595
1.10942e-06
1.42654e-06
1.20603e-06
0.00421419
0.00552052
0.0639871
2.4921e-05
0.0129971
0.00929991
0
5.70293e-07
4.64836e-07
3.96749e-09
0
1.64939e-08
0.0616446
2.80247e-09
0.000428124
0
4.10021e-09
0.000407484
5.28906e-06
0.00652521
0
0.0264073
0
0.000245147
2.57623e-10
1.31182e-10
0.0446761
0.0526014
0.0606688
0.0220191
4.29975e-05
6.47593e-05
3.89145e-10
8.19438e-05
5.44564e-10
0.000337272
0.00361684
1.0548e-10
2.27441e-05
0.0229274
0.00467147
5.83546e-07
4.3709e-07
0.0120284
0.00222264
3.30202e-07
2.4348e-07
0.0730084
1.39772e-06
1.09475e-06
1.01339e-06
8.38572e-07
0.0351421
0.00717135
1.40019e-06
5.00988e-09
0.00847963
2.62574e-07
0.0818295
1.09029e-06
2.46868e-07
0.0823472
8.73971e-07
0.0689877
4.03654e-07
6.78204e-07
0.00362826
0.00111675
0.0732179
0.0536721
0.00111105
0.000802641
0.0455486
1.99693e-07
0.00859936
2.76858e-07
0.000713356
0.116149
0.000931005
0.110813
0.00056435
0.00124471
0.000738963
0.00123471
3.26842e-07
3.3463e-07
0.0515899
0.00117385
0.00226844
0.000886066
0.00309292
0.00104201
0.000798528
0.0840339
0.00132136
0.00116377
0.00545814
0.00537046
0.00719398
0.1175
1.17891e-06
5.38719e-07
0.107328
1.80529e-07
6.14016e-08
3.00683e-07
0.00809929
0.000702846
1.20527e-05
0.00929369
0.00864857
0.0115675
8.72029e-06
0.00379595
0.000902534
0.0491785
2.77688e-07
0.000893365
0.148111
1.40174e-07
0.00257007
2.55621e-05
0.00376076
0.00369255
7.23192e-08
1.1553e-07
0.00369486
4.57172e-08
0.00866488
0.0816265
9.48595e-08
0.140021
0.144115
5.32072e-10
3.51655e-07
6.33519e-07
0.10926
1.47092e-06
0.00193386
0.0682901
3.78767e-07
0.0865412
5.4439e-07
3.57052e-07
1.3801e-07
2.34578e-07
0.0705879
0.00175549
2.8625e-07
0.0064135
0.00146298
0.0418289
0.0390941
0.0372269
0.0254166
0.0231572
0.0254302
1.88413e-05
0.0204294
1.57046e-05
6.92238e-07
9.40065e-08
0.0259686
1.44681e-07
1.75898e-07
4.07138e-07
0.00216185
5.15625e-07
3.36828e-07
7.26248e-08
1.05506e-07
2.3251e-07
3.63468e-07
0.00546499
5.51029e-08
6.57411e-08
0.0887103
0.000288807
0.0846987
0.0487709
0.00236037
0.00209642
0.0177638
0.0152086
0.00448152
0.148569
0.019465
0.0886005
0.0143678
1.06976e-08
1.75014e-08
0
0.000170014
0.0612819
0.0686762
3.6376e-08
0
0.000712256
5.10162e-08
0.000558259
0.00169517
0.000359843
0.0113112
0.0352781
0.000282872
4.61028e-07
3.54082e-06
0.0860482
5.06869e-07
4.23556e-06
0
0
0
2.98938e-06
0.0437956
8.83262e-07
0.037533
1.83827e-05
0.00867704
0.0091282
0.0112048
0.0668017
0.0706198
0.066462
0.0214562
0
0.00357333
0.117227
0.132095
0.0967478
7.66768e-08
0.000847677
0.104078
0.113903
2.26945e-07
0.00441249
0.104395
0.12082
0.00661261
1.19829e-05
0.0356114
0.0315222
0.0273989
0.00339679
0.0348632
0.000291885
0.0269408
0.000136313
0.0188737
0.02192
0.0961342
0.102226
0.131787
0.129022
0.130286
0.0382133
0.0294323
0.107336
0.111881
3.20986e-05
0.000186807
0.115124
0.110157
0.0237532
0.0245874
0.0212644
0.113441
0.119387
0.0832862
0.119165
0.0149903
0.0174236
0.0199951
0.114764
0.122237
0.123887
5.89269e-06
3.60081e-06
0.00478087
0.11985
0.121186
0.123407
0.00399239
0.12968
0.14019
0.131249
1.83755e-06
0.0086825
0.000372107
0.0105643
0.0209073
5.77411e-06
0.0909912
0.0997126
0.103593
1.31852e-07
3.16986e-07
1.7906e-07
2.06936e-07
0.00192905
0.00149843
8.75733e-09
0.00612727
6.52209e-05
1.18936e-08
2.3325e-08
0.000275149
5.48491e-08
0.00150001
0.154608
0.000770198
0.000602611
0.000627514
0.000514832
0.0010479
0.00092626
0.000806884
0.000595897
2.31623e-07
0.000785458
0.000691747
0.0201571
0.0237291
0.000213116
0.000370792
0
0.00292651
1.47977e-10
0.0152255
0.0182742
0.0127177
0.000387935
0.000338368
1.01013e-07
7.28697e-05
1.02585e-05
0.0035435
0.00014566
6.42453e-06
0.00458261
9.64049e-09
0.00653127
1.88433e-09
4.36359e-08
0.0049627
3.2651e-05
0.0156681
2.43977e-08
0.0769456
0.0211894
9.85401e-05
4.28109e-05
0.016974
5.12103e-09
0.000436158
0.00428852
0.000382931
0.000418691
0.0154412
0.000549576
0.077481
0.0755827
9.1944e-08
0.00288811
0.00295298
1.20704e-07
6.40129e-08
0.0371183
0.0212022
0.051645
9.9725e-10
0.0284717
1.9486e-09
0.000149089
0.0695026
0.0702745
0.0611085
0.000492521
0.000449077
0.00926725
0.00787025
0.00678374
2.46274e-06
0.0388481
0.0444904
0
3.34026e-05
0.0994042
0.0055588
1.23792e-06
8.78471e-06
0.145289
0.00112763
0.00267362
0.106589
0.113361
0.00479967
0.108461
1.24679e-07
0.0280775
0.000874202
0.00479003
0.106392
2.33477e-06
0.113335
0.00150936
4.22227e-07
1.2747e-10
0.0112357
5.06446e-06
0.0880785
8.15262e-06
2.12093e-05
0.0124625
1.83789e-05
0
0
0
2.95733e-05
9.53374e-06
0
0.043472
0
0.0257821
7.31616e-06
7.83551e-06
0
4.00993e-05
0.0173888
0.0237301
8.44101e-05
0
0
0.0175947
0.0202346
0.0165579
0.0693561
0.0126618
0
0
0.0127798
0.0153826
0.00039087
0.0103141
0.00384714
1.30776e-08
0
6.53539e-06
0.00431328
6.96383e-06
4.29293e-06
0.0189624
5.29477e-05
2.36188e-05
0.0145027
0.0724835
0.0793277
0
3.82701e-06
0.150207
4.83603e-06
4.81629e-06
9.5295e-06
0.0388844
3.78513e-05
5.73366e-06
2.51858e-06
6.54592e-05
0.0173751
8.40871e-06
0.0186659
0.0132807
0.0503136
1.74823e-09
0.016601
0.019761
0.0230238
0.0390244
0.000281401
0.030114
0.000149393
7.38297e-05
0.0224455
0.011613
5.41087e-06
0.0131703
2.65908e-05
0.0138028
0.0609412
0
0.000737115
6.56822e-09
0.000590671
3.36362e-06
6.4173e-06
0.00122862
9.10614e-05
0.00299013
0.0367851
2.03059e-09
9.19226e-10
9.31482e-07
0.0578249
0.0624873
0
0.00280653
3.1419e-09
0
5.96208e-10
0.0129001
1.90796e-05
0.00114833
0
0.0742607
6.52907e-06
0
0.018422
0.0115366
0.0856999
0.0100695
0.0904047
0.0768768
0.0725611
0.0887163
0.00193336
4.1469e-05
0.162759
0.0234023
1.85844e-05
0.159371
0.164368
1.29543e-06
0.00250402
4.71439e-05
0
0.0181493
0.0455456
0.000655191
0.000370348
0.037871
0.104416
0.00196682
0
0.0347553
3.34546e-05
0.163178
0.0928494
0.0671577
0.089944
0.0816021
0.00163068
0.00195036
0.0845588
0.00252407
0.00182143
0.0616295
0.000744254
0.00145833
0.00259547
2.01799e-05
0.0398401
0.000676741
0.0157775
3.19195e-05
0.127673
0.00617181
0.000161551
7.32012e-05
0.0189333
0.0144249
1.14996e-09
0.0203683
2.9975e-08
6.14734e-09
2.5164e-08
0.0018628
9.58857e-09
0.0259685
0.000358004
0.0100651
0.0299286
9.79381e-05
0.0274792
0.0207532
6.16198e-05
1.36815e-07
1.07897e-08
4.15633e-07
0.00675781
0
0
0
1.01042e-05
0.0369143
0.000469007
0.0505157
0.0589715
0.0691717
6.82684e-05
1.37823e-05
0.149548
0.00145773
2.01957e-05
0.0267032
0.0492957
5.15012e-05
6.50908e-06
2.45104e-08
8.09725e-06
8.28475e-05
0.018444
0.136521
0.0254496
0.147194
5.32589e-06
3.22837e-06
3.66488e-06
6.11953e-06
0.0183894
0.0243537
0.0031502
0
0.0243666
0.0329196
0
0.00157133
0.112419
1.55503e-06
0.0345225
0.00124105
0.00262218
0
2.1478e-06
0.00120529
0.0193238
0
0.0292851
7.62134e-08
0.00994486
0.000556396
0.00224187
0.0287723
0
1.16615e-07
2.053e-06
0.00307514
0.0357657
0.000437159
8.5168e-08
0.0266465
0.075362
6.82157e-07
9.50137e-05
0.0269966
0.0321437
0.000206852
2.20714e-08
0.00420293
0.0214303
0
0.0013564
0
3.64729e-06
2.92885e-06
0
1.89645e-05
0
0.00761528
0.0877296
0.0249654
4.26325e-09
0.0343393
4.16795e-07
0.00308053
0.010341
2.24208e-05
3.06488e-06
0.0973334
0.000728231
1.271e-07
0.039168
2.62071e-08
0.0165621
0.00166848
0.00587119
0.12614
7.79557e-06
0.0246875
8.91237e-06
0.0219036
0.00307116
5.86171e-07
1.07892e-07
0.0152734
1.34752e-08
8.9525e-07
3.14309e-08
0.0135992
2.20011e-09
0.0858142
1.04076e-05
0.00814296
0.0129485
2.28102e-05
4.3027e-06
1.08569e-07
2.72505e-06
0.00307069
4.2675e-05
0.114738
0.087095
0.000256106
0.0079572
1.73715e-05
0.0128643
0.0204354
0.0816158
0.00482506
0.0118557
1.43139e-05
0.0156406
0.0242803
0.00344238
0.0768754
0.00452884
0
0.0322267
0.0838431
1.42812e-10
0.00633153
4.37374e-07
0.0452267
0.00399185
2.99889e-10
1.39469e-05
0.07633
0.0794556
6.41579e-06
2.46271e-05
0.00189164
0.00601561
0
0.0669133
0.00241362
0.0088255
7.81649e-06
4.67526e-05
4.80504e-10
0.000217674
0.00362388
0
0.00336346
0
0.0542257
0.063604
2.16315e-07
0.00673428
0
0.0626982
0.00298053
0.00385819
0.0509579
0.00286831
0
1.11054e-05
0.000679078
0.000748196
6.76163e-09
2.24863e-10
1.1293e-07
9.16039e-07
1.00087e-05
0.117738
1.74497e-10
3.74785e-07
0.111353
0.0942839
2.01792e-07
0.126794
0.00936786
0.134739
0.113173
0.0115376
0.0455883
0.0387638
0.0555983
0.00530721
0.12138
6.56859e-07
0.0589177
8.89738e-05
3.76177e-07
0.0886476
0.000245759
0.000368799
0.0188548
4.68247e-06
0.014828
0.000154321
0.000248983
2.45377e-08
1.84682e-06
0.112263
0.02888
2.87112e-05
0.0192119
0.00291848
0.00640173
0
0.0314762
0.00336897
0
0.024862
0.00271657
0.104195
0.0324343
0.00308983
0.00601399
7.70623e-07
0.0977729
9.64687e-07
4.03608e-07
0.000905705
0.00203707
1.75196e-10
0.0633794
0.000354509
0.00687031
0.00278891
0
0.00198018
0.0239359
1.09601e-10
0
0.000745273
6.81683e-10
2.67106e-07
3.97441e-08
0.012157
0.00194364
0.0203854
0
0
0.0135445
0
0
0.00246147
0
0.00938536
0
0
9.19355e-06
0.00845594
0.0130556
2.02669e-05
1.67101e-09
0
0.0567648
0.0576209
0.000571786
0.0553836
0.0699485
0.0007943
5.75401e-10
9.23889e-08
0.00353113
0.00142419
1.35242e-09
1.74589e-09
8.55929e-09
0.00499632
0.000414398
5.07346e-05
0.000195512
4.51958e-10
1.64947e-07
8.52035e-10
1.87882e-08
3.33642e-10
0.00579827
9.59223e-05
0
0.000221243
0.0310979
0.000489023
0.000564687
0.0317772
0.0939108
0.000402262
0
0.00113008
2.02885e-10
0.0926121
0
9.89737e-05
0.0259651
0.000228564
5.16618e-07
0.0672264
3.00661e-06
0
0.0436036
0.000523221
0.0186497
0.00849822
0.00883183
0.0527271
0.000665177
1.52969e-05
3.8151e-05
0.0882137
0.0865736
0.00486076
4.11028e-06
0.0158264
3.50731e-05
0
0
1.34891e-06
0.00135725
0.0850849
0.0906161
0.00233502
0.00869061
1.73047e-05
0
0.0978438
0.0364737
0.0492101
0
0.0808588
0.000937583
0.0705681
7.78732e-07
0.0758918
0.0035002
0.156917
0.0034602
0
0.0268885
2.78463e-05
0.1568
0.0565733
0.00404721
0.00447223
4.89241e-07
3.8412e-07
1.40165e-10
6.29839e-05
0.0180762
0.000440746
0.000234432
1.43841e-07
2.81112e-10
0.00213101
4.253e-06
0.0106753
0.16191
0.157166
0.159923
0.162166
0.000198581
1.56318e-10
0.0758029
0.163733
0
1.32687e-05
0.0114743
0.0168766
2.88002e-05
3.52885e-08
0.160102
0.00183571
0.0738318
7.1596e-07
0.00816567
1.33683e-07
1.40338e-07
0.000175538
0.12702
2.02383e-09
0.162449
0.0622869
0.000774882
0.0351589
0.0226331
0.0383206
0
0.120348
0.149621
0.144948
0.00114246
0.16277
0.071633
0.00205897
0.159308
0.016502
4.28065e-08
0.0696553
6.1514e-07
0.000774268
0.160099
0.0880767
2.27986e-05
0.153289
0.0629849
0.000628858
0.0776077
0.0814449
0.000856109
0.153512
0.01666
0.00424394
0.0172566
0.0872435
0.055661
0
0.0899578
6.86738e-07
0.000169222
7.7045e-08
0.00367674
0.000116128
0.0114681
1.75279e-06
0.0904098
1.39627e-10
0.020436
0.142452
0.0114165
0.00743529
0.133237
0.00798619
0.00211712
0.0143755
1.49688e-09
0.157292
0.0725135
0.0023009
0.00101716
0.0245561
0.0338883
1.62657e-08
0.0748709
0.0201162
2.88142e-05
0.00137723
0.00361634
0
0.00347604
2.3912e-05
0.000890484
0.0236612
0.000851158
0.0021908
3.30463e-05
6.18999e-05
0.0230395
0.024304
0.0593787
6.58314e-07
0.0962142
0.0125973
0.0864527
0.0535464
0.00505488
0.136277
5.45897e-05
2.05237e-05
0.0549039
0.000322862
0.0138861
3.03058e-05
0.155491
6.5396e-08
0.00153066
0.154976
0.0898658
0
0.0047081
0.0402236
0.00536355
0.011298
2.08013e-10
0.00255835
0.000203899
0.0780672
3.27586e-07
0.069163
0.000867939
2.04511e-06
0.00253765
0.00467174
4.65506e-06
0.0549963
3.05335e-06
0.000919501
0.0796423
2.5877e-07
0.00112449
0.0557216
0.00424904
2.50294e-07
0.000969924
0.07855
1.93885e-06
0.0243665
3.58186e-06
4.99684e-06
0.019062
0.00949269
0.00113139
0.00909421
0
0
5.67201e-05
0.0028146
0.0122283
0
0.00821517
0.0114232
6.30781e-05
2.94285e-08
8.30705e-06
0.000175896
3.09534e-05
0.0610255
1.0061e-05
0.0591159
2.52105e-06
2.90675e-06
0
9.00239e-06
0
0
0.0167375
0.152933
4.41687e-05
0
0.0640825
0.000117204
1.88992e-05
0.000139302
3.06745e-09
0.0226698
0.0866868
0.000471588
0.0460405
0.030926
5.86633e-05
8.65685e-05
8.84784e-09
0.00556408
2.45136e-06
1.1118e-06
0.00232968
0.0220324
8.29713e-05
0.00804964
1.47843e-05
0.00939791
0.0211353
0.119579
4.02e-09
0.00587362
0.0670536
0.017929
0.0620894
0.000654979
0.0578487
0.102624
0.0625083
0.0179391
0.0732293
5.13296e-05
0.000129528
0.00232923
0.00250138
0.0543969
4.19689e-07
0.00496658
0.0925833
0.00822188
0.0769529
4.74323e-07
1.63443e-07
0.00228838
0.101203
0.00379258
0.00165857
0.0845788
0.0121221
0.0567452
0.11677
0.00126548
0.0673744
0.0940572
0.138634
0.00758081
1.85376e-10
0.0161425
0.00069381
0.062394
0
0.0413737
1.38884e-05
0.12606
6.39823e-05
0.0128351
1.99142e-05
2.51481e-09
0.00300533
1.02633e-05
0.0150498
0.148909
8.20691e-06
0.000731713
2.56139e-05
0.15831
0.00015185
1.86487e-07
2.23612e-06
0.000911359
0.1536
0.158077
0.0297944
0.00325684
4.867e-05
0.157174
0.0188301
0.0571017
0.106518
0.087168
2.84591e-07
0.00213754
0.0742044
0.00401976
0.0106736
0.0779325
0.14576
0.0709314
4.26653e-09
3.19695e-07
0.067239
0.00095567
0.000640578
0.0546736
0.0168944
1.38088e-05
0.0137947
0.0624138
0.061825
0.092701
0.102258
6.44959e-07
0.0633653
3.98272e-05
0.0963406
6.84109e-07
0.0558778
1.15316e-07
0.00139593
6.2604e-08
0.0323495
0.00337233
0.000503803
6.83686e-05
0.0218705
0.0340287
0.000654988
0.0156311
5.45006e-08
0.0176244
0.000487829
1.44205e-09
2.56437e-08
0.0226225
0.0102667
1.04426e-08
0.0874456
1.97278e-06
0
0
0.0788978
1.7762e-07
0
0.00396796
0.00700324
6.54546e-06
0.0157452
3.18144e-05
0
0.000262333
2.08918e-05
3.18107e-05
0.0028805
6.17526e-06
0.0972282
5.19303e-06
0
0
0.0329389
0.000455862
6.13609e-06
1.58645e-06
0.0911335
0
0.00240112
0
0.103943
0.00227512
2.23118e-06
0.0972062
0.00976277
0
0
0.004915
0.0587733
1.60884e-06
0.0186375
0.000117797
4.38283e-09
0.0213724
0.100905
0.0217624
0.111051
0.0229427
0.0111157
0.000504533
0.107462
0.0191643
1.54522e-07
1.62853e-06
2.53059e-05
0.145784
7.77639e-05
2.211e-05
0.154267
1.39335e-06
0.0259029
0.105691
0.14373
0.00124099
5.25056e-09
4.69659e-08
0.0229026
0.00250765
0
0.000514835
0.000615962
0.0657295
0.0170111
0.00574624
0.0174246
0.0637885
0.000523858
0.00366601
0
0
0.0205434
0
0.0118034
0.00266381
3.89517e-06
6.18116e-08
0.00524645
0.153429
0.0634233
1.10198e-06
1.75511e-06
1.43408e-06
1.73434e-06
0.00469867
9.08958e-07
0.00434259
0.00100052
0.12046
1.0959e-07
0.0632067
1.12856e-06
0.0061315
1.4626e-06
1.87469e-07
1.55243e-06
0.0651691
0.154002
1.80254e-06
0.00574303
8.5898e-06
0.00465107
0.0727346
7.47348e-07
1.12521e-05
0.0184318
0.0296566
0.00048813
0.0126106
1.44275e-06
0.105382
0.00191423
0.0136168
1.27842e-05
5.83332e-06
0.0084085
0.144421
2.50372e-05
0
0
4.38938e-06
7.56223e-05
1.2651e-05
0.015599
0.067915
0.0618602
2.46257e-08
0.00305999
0.00161727
0.00165633
0.160438
0
0.0174704
0
0.00391587
0.0848258
6.17823e-06
0
2.07621e-06
1.52e-07
0.0489995
0.0475636
0.0083536
0
0
0.0154494
2.79678e-05
4.65766e-05
0.094673
0.00340621
0.0281726
4.42144e-09
7.57527e-06
0.00307976
0.000448224
0.0709623
0.0179031
0.0666689
5.95434e-09
3.41817e-08
4.6187e-08
1.31052e-08
2.21404e-06
1.80199e-08
0.00103044
0.00106662
0.00652473
0.0435499
0.0346201
0.0110194
3.55311e-05
1.13159e-09
0.000122332
0.00112504
4.49557e-05
1.03535e-05
0.0013227
6.66805e-07
0.008362
0.0115229
0.00164873
0.000780614
0.0101628
0.0806785
0
0
4.47636e-07
0.057397
0.0682085
2.75964e-06
2.20388e-07
0.0621908
1.74307e-07
0.0636055
0.065608
0.0498029
0.0540774
1.10648e-09
1.06851e-06
0.0912093
0.00693492
0.000868137
0.0344824
2.77513e-08
0
0.00382964
0.000233184
0.000317939
0.00023972
0.0249653
5.88589e-09
0.0233032