# vtk DataFile Version 2.0
Unstructured Grid by M++
ASCII
DATASET UNSTRUCTURED_GRID
POINTS 4072 float
  0.609375   0.843750 0
  0.562500   0.843750 0
  0.531250   0.843750 0
  0.875000   0.828125 0
  0.984375   0.828125 0
  0.953125   0.828125 0
  0.937500   0.828125 0
  0.843750   0.828125 0
  0.812500   0.828125 0
  0.781250   0.828125 0
  0.765625   0.828125 0
  0.734375   0.828125 0
  0.703125   0.828125 0
  0.671875   0.828125 0
  0.640625   0.828125 0
  0.609375   0.828125 0
  0.593750   0.828125 0
  0.562500   0.828125 0
  0.546875   0.828125 0
  0.531250   0.828125 0
  0.515625   0.828125 0
  0.968750   0.812500 0
  0.937500   0.812500 0
  0.921875   0.812500 0
  0.890625   0.812500 0
  0.859375   0.812500 0
  0.828125   0.812500 0
  0.796875   0.812500 0
  0.765625   0.812500 0
  0.750000   0.812500 0
  0.718750   0.812500 0
  0.687500   0.812500 0
  0.656250   0.812500 0
  0.625000   0.812500 0
  0.593750   0.812500 0
  0.578125   0.812500 0
  0.546875   0.812500 0
  0.531250   0.812500 0
  0.515625   0.812500 0
  0.984375   0.796875 0
  0.562500   0.015625 0
  0.953125   0.796875 0
  0.921875   0.796875 0
  0.906250   0.796875 0
  0.875000   0.796875 0
  0.843750   0.796875 0
  0.812500   0.796875 0
  0.781250   0.796875 0
  0.750000   0.796875 0
  0.734375   0.796875 0
  0.703125   0.796875 0
  0.671875   0.796875 0
  0.640625   0.796875 0
  0.609375   0.796875 0
  0.578125   0.796875 0
  0.562500   0.796875 0
  0.531250   0.796875 0
  0.515625   0.796875 0
  0.968750   0.781250 0
  0.546875   0.000000 0
  0.937500   0.781250 0
  0.906250   0.781250 0
  0.890625   0.781250 0
  0.859375   0.781250 0
  0.828125   0.781250 0
  0.796875   0.781250 0
  0.765625   0.781250 0
  0.734375   0.781250 0
  0.718750   0.781250 0
  0.687500   0.781250 0
  0.656250   0.781250 0
  0.625000   0.781250 0
  0.593750   0.781250 0
  0.562500   0.781250 0
  0.546875   0.781250 0
  0.515625   0.781250 0
  0.984375   0.765625 0
  0.953125   0.765625 0
  0.921875   0.765625 0
  0.890625   0.765625 0
  0.875000   0.765625 0
  0.843750   0.765625 0
  0.812500   0.765625 0
  0.781250   0.765625 0
  0.750000   0.765625 0
  0.718750   0.765625 0
  0.703125   0.765625 0
  0.671875   0.765625 0
  0.640625   0.765625 0
  0.609375   0.765625 0
  0.578125   0.765625 0
  0.593750   0.750000 0
  0.562500   0.765625 0
  0.546875   0.765625 0
  0.531250   0.765625 0
  0.562500   0.750000 0
  0.968750   0.750000 0
  0.937500   0.750000 0
  0.906250   0.750000 0
  0.875000   0.750000 0
  0.859375   0.750000 0
  0.828125   0.750000 0
  0.796875   0.750000 0
  0.765625   0.750000 0
  0.734375   0.750000 0
  0.703125   0.750000 0
  0.687500   0.750000 0
  0.671875   0.750000 0
  0.656250   0.750000 0
  0.625000   0.750000 0
  0.546875   0.750000 0
  0.531250   0.750000 0
  0.515625   0.750000 0
  0.562500   0.734375 0
  0.984375   0.734375 0
  0.953125   0.734375 0
  0.921875   0.734375 0
  0.890625   0.734375 0
  0.859375   0.734375 0
  0.843750   0.734375 0
  0.812500   0.734375 0
  0.781250   0.734375 0
  0.750000   0.734375 0
  0.718750   0.734375 0
  0.687500   0.734375 0
  0.671875   0.734375 0
  0.656250   0.734375 0
  0.640625   0.734375 0
  0.546875   0.734375 0
  0.531250   0.734375 0
  0.515625   0.734375 0
  0.562500   0.718750 0
  0.968750   0.718750 0
  0.937500   0.718750 0
  0.906250   0.718750 0
  0.875000   0.718750 0
  0.843750   0.718750 0
  0.796875   0.718750 0
  0.765625   0.718750 0
  0.734375   0.718750 0
  0.703125   0.718750 0
  0.687500   0.718750 0
  0.671875   0.718750 0
  0.656250   0.718750 0
  0.625000   0.718750 0
  0.546875   0.718750 0
  0.531250   0.718750 0
  0.515625   0.718750 0
  0.562500   0.703125 0
  0.953125   0.703125 0
  0.921875   0.703125 0
  0.890625   0.703125 0
  0.859375   0.703125 0
  0.828125   0.703125 0
  0.781250   0.703125 0
  0.750000   0.703125 0
  0.718750   0.703125 0
  0.687500   0.703125 0
  0.656250   0.703125 0
  0.546875   0.703125 0
  0.531250   0.703125 0
  0.515625   0.703125 0
  0.984375   0.687500 0
  0.937500   0.687500 0
  0.921875   0.687500 0
  0.906250   0.687500 0
  0.875000   0.687500 0
  0.843750   0.687500 0
  0.812500   0.687500 0
  0.765625   0.687500 0
  0.734375   0.687500 0
  0.703125   0.687500 0
  0.671875   0.687500 0
  0.640625   0.687500 0
  0.593750   0.687500 0
  0.562500   0.687500 0
  0.546875   0.687500 0
  0.531250   0.687500 0
  0.515625   0.687500 0
  0.968750   0.671875 0
  0.937500   0.671875 0
  0.921875   0.671875 0
  0.906250   0.671875 0
  0.890625   0.671875 0
  0.859375   0.671875 0
  0.828125   0.671875 0
  0.796875   0.671875 0
  0.765625   0.671875 0
  0.750000   0.671875 0
  0.718750   0.671875 0
  0.687500   0.671875 0
  0.656250   0.671875 0
  0.625000   0.671875 0
  0.593750   0.671875 0
  0.578125   0.671875 0
  0.546875   0.671875 0
  0.531250   0.671875 0
  0.515625   0.671875 0
  0.984375   0.656250 0
  0.953125   0.656250 0
  0.937500   0.656250 0
  0.921875   0.656250 0
  0.906250   0.656250 0
  0.875000   0.656250 0
  0.843750   0.656250 0
  0.812500   0.656250 0
  0.781250   0.656250 0
  0.750000   0.656250 0
  0.734375   0.656250 0
  0.703125   0.656250 0
  0.671875   0.656250 0
  0.640625   0.656250 0
  0.609375   0.656250 0
  0.578125   0.656250 0
  0.562500   0.656250 0
  0.531250   0.656250 0
  0.515625   0.656250 0
  0.968750   0.640625 0
  0.937500   0.640625 0
  0.906250   0.640625 0
  0.890625   0.640625 0
  0.859375   0.640625 0
  0.828125   0.640625 0
  0.796875   0.640625 0
  0.765625   0.640625 0
  0.734375   0.640625 0
  0.718750   0.640625 0
  0.687500   0.640625 0
  0.656250   0.640625 0
  0.625000   0.640625 0
  0.593750   0.640625 0
  0.562500   0.640625 0
  0.546875   0.640625 0
  0.515625   0.640625 0
  0.984375   0.625000 0
  0.953125   0.625000 0
  0.921875   0.625000 0
  0.890625   0.625000 0
  0.875000   0.625000 0
  0.843750   0.625000 0
  0.812500   0.625000 0
  0.781250   0.625000 0
  0.750000   0.625000 0
  0.734375   0.625000 0
  0.718750   0.625000 0
  0.703125   0.625000 0
  0.671875   0.625000 0
  0.640625   0.625000 0
  0.609375   0.625000 0
  0.578125   0.625000 0
  0.562500   0.625000 0
  0.546875   0.625000 0
  0.531250   0.625000 0
  0.968750   0.609375 0
  0.937500   0.609375 0
  0.906250   0.609375 0
  0.875000   0.609375 0
  0.859375   0.609375 0
  0.828125   0.609375 0
  0.796875   0.609375 0
  0.765625   0.609375 0
  0.750000   0.609375 0
  0.734375   0.609375 0
  0.718750   0.609375 0
  0.703125   0.609375 0
  0.687500   0.609375 0
  0.656250   0.609375 0
  0.625000   0.609375 0
  0.593750   0.609375 0
  0.562500   0.609375 0
  0.546875   0.609375 0
  0.531250   0.609375 0
  0.515625   0.609375 0
  0.984375   0.593750 0
  0.953125   0.593750 0
  0.921875   0.593750 0
  0.890625   0.593750 0
  0.859375   0.593750 0
  0.843750   0.593750 0
  0.812500   0.593750 0
  0.781250   0.593750 0
  0.750000   0.593750 0
  0.734375   0.593750 0
  0.718750   0.593750 0
  0.687500   0.593750 0
  0.671875   0.593750 0
  0.640625   0.593750 0
  0.609375   0.593750 0
  0.578125   0.593750 0
  0.562500   0.593750 0
  0.546875   0.593750 0
  0.531250   0.593750 0
  0.515625   0.593750 0
  0.968750   0.578125 0
  0.937500   0.578125 0
  0.906250   0.578125 0
  0.875000   0.578125 0
  0.890625   0.562500 0
  0.843750   0.578125 0
  0.828125   0.578125 0
  0.796875   0.578125 0
  0.765625   0.578125 0
  0.734375   0.578125 0
  0.703125   0.578125 0
  0.671875   0.578125 0
  0.656250   0.578125 0
  0.656250   0.562500 0
  0.625000   0.578125 0
  0.640625   0.562500 0
  0.593750   0.578125 0
  0.562500   0.578125 0
  0.546875   0.578125 0
  0.531250   0.578125 0
  0.515625   0.578125 0
  0.859375   0.562500 0
  0.828125   0.562500 0
  0.781250   0.562500 0
  0.750000   0.562500 0
  0.718750   0.562500 0
  0.687500   0.562500 0
  0.609375   0.562500 0
  0.578125   0.562500 0
  0.562500   0.562500 0
  0.546875   0.562500 0
  0.531250   0.562500 0
  0.515625   0.562500 0
  1.000000   0.812500 0
  0.578125   0.031250 0
  0.875000   0.546875 0
  0.625000   0.546875 0
  0.218750   0.000000 0
  0.640625   0.781250 0
  0.828125   0.093750 0
  0.031250   0.531250 0
  0.296875   0.328125 0
  0.296875   0.312500 0
  0.281250   0.312500 0
  0.765625   0.312500 0
  0.031250   0.859375 0
  0.093750   0.265625 0
  0.109375   0.250000 0
  0.187500   0.671875 0
  0.421875   0.640625 0
  0.031250   0.062500 0
  0.140625   0.125000 0
  0.562500   0.906250 0
  0.125000   0.437500 0
  0.203125   0.937500 0
  0.125000   0.421875 0
  0.140625   0.406250 0
  0.093750   0.437500 0
  0.109375   0.421875 0
  0.093750   0.421875 0
  0.109375   0.406250 0
  0.328125   0.125000 0
  0.750000   0.906250 0
  0.328125   0.109375 0
  0.750000   0.890625 0
  0.312500   0.125000 0
  0.734375   0.906250 0
  0.281250   0.343750 0
  0.265625   0.359375 0
  0.500000   0.796875 0
  0.078125   0.015625 0
  0.062500   0.015625 0
  0.484375   0.796875 0
  0.484375   0.781250 0
  0.062500   0.000000 0
  0.015625   0.250000 0
  0.062500   0.046875 0
  0.484375   0.828125 0
  0.484375   0.812500 0
  0.062500   0.031250 0
  0.281250   0.671875 0
  0.062500   0.234375 0
  0.328125   0.765625 0
  0.312500   0.750000 0
  0.015625   0.671875 0
  0.781250   0.187500 0
  0.015625   0.265625 0
  0.453125   0.250000 0
  0.453125   0.234375 0
  0.031250   0.265625 0
  0.046875   0.250000 0
  0.093750   0.015625 0
  0.265625   0.656250 0
  0.734375   0.281250 0
  0.156250   0.015625 0
  0.062500   0.265625 0
  0.046875   0.281250 0
  0.031250   0.281250 0
  0.343750   0.781250 0
  0.328125   0.781250 0
  0.265625   0.687500 0
  0.265625   0.703125 0
  0.156250   0.109375 0
  0.578125   0.890625 0
  0.484375   0.984375 0
  0.062500   0.203125 0
  0.328125   0.718750 0
  0.343750   0.734375 0
  0.343750   0.750000 0
  0.453125   0.500000 0
  0.437500   0.500000 0
  0.234375   0.093750 0
  0.171875   0.375000 0
  0.437500   0.531250 0
  0.468750   0.546875 0
  0.453125   0.546875 0
  0.187500   0.015625 0
  0.187500   0.000000 0
  0.609375   0.781250 0
[...]
CELL_DATA 7648
SCALARS scalar_value float 1
LOOKUP_TABLE default
4.27734e-05
4.70781e-05
5.64496e-05
4.15482e-05
0.0267936
0.0290982
0.0317764
0.0295024
4.47349e-05
5.39294e-05
5.8194e-05
0.0118471
0.013627
0.0103247
7.07185e-06
6.00067e-06
6.39621e-06
4.65027e-06
1.18817e-08
1.15608e-08
1.44313e-08
9.78141e-09
8.56851e-09
9.61341e-10
1.06232e-09
1.55468e-09
8.37583e-10
0.000204889
0.000226415
2.464e-10
3.13593e-10
4.20637e-10
2.54258e-10
7.0544e-10
8.97568e-10
1.1689e-09
7.74006e-10
2.86465e-10
3.86872e-10
5.14541e-10
0
1.0852e-10
0.000107809
0.000159266
0.0001694
0.00232202
0.00278745
0.00331012
1.32067e-09
0.00338792
0.0146862
1.80712e-08
1.66304e-09
2.2742e-09
0.00014107
1.41384e-09
0.000194245
0.000111017
3.53403e-10
5.20112e-10
7.6318e-10
5.06059e-09
4.363e-09
0.000282916
0.000225357
0
0
1.19289e-09
2.03607e-06
0
6.09026e-07
0
6.98155e-06
1.4082e-05
0.00024935
0
0.000120058
0
0.000260295
2.91725e-05
4.10672e-05
0
0
0
0.00609854
1.00137e-09
3.74334e-07
3.37042e-07
0.000550887
0
0
0
2.04743e-08
2.94536e-08
0
7.07686e-10
0.000311177
1.1035e-09
0.000386632
0.000499384
2.06369e-05
5.52379e-09
2.3635e-05
4.56327e-05
1.22579e-08
6.44033e-07
5.75741e-06
0.00549115
0.00575081
0
5.22469e-10
1.15196e-05
1.16051e-05
0
3.47326e-08
0
4.66343e-08
2.40798e-08
9.32902e-10
0.0246227
0.0267969
0
0
8.26986e-08
0
0
0
0.000904874
0.00116691
0.000756217
0
0.000641187
0
0.00520069
1.30582e-06
0.00538986
0.000145429
2.90561e-09
6.11845e-10
0.00212632
0.000327435
0.00247417
0.00272304
2.63837e-10
0.00272306
0.00262006
0.0291566
2.06182e-08
0.0161871
0.000329071
0.000320591
1.99816e-09
2.65005e-09
3.41163e-09
0.00876309
0.00689576
0.0122873
3.95026e-10
0.00414545
2.15179e-09
0
1.26076e-08
1.48139e-08
4.7377e-06
0.00236806
0.00298689
3.12233e-10
0.00206761
4.24697e-09
0.0494133
0
0.00195922
0.00369754
0.0033305
9.50803e-06
8.33821e-08
0.0274225
0.00106584
1.51107e-06
0.00127191
0.00162597
2.18717e-06
0.00719218
0.000170786
0
2.93681e-08
0.0143414
0
0
0.000288291
0
0.000359618
0.000789199
0
0
0.000926099
0.00109381
0.000952635
0
0
0
0.0078007
3.55187e-08
0.0170011
0.0163642
3.46129e-08
2.82919e-09
0.00631836
0.00771553
0.00590431
1.86124e-10
2.94411e-10
4.38194e-10
2.64885e-10
0.00132106
5.58152e-08
0
0.0624657
0
8.44163e-05
0.000186467
0.00161042
0.00199439
1.01196e-10
0.00160131
0
2.53487e-05
7.27649e-05
0.0013203
0.00108144
0.024097
0.019894
0.000635111
6.16952e-07
0.0248306
0.0269998
0.0284481
0.0279646
0.000452257
0
0.000385961
0.00715654
4.98491e-07
0.000355501
0.00041812
0.00119182
2.04361e-06
0.00105723
0.0013015
0
0.00103384
0.000155454
2.80502e-09
3.84691e-09
3.78695e-09
0.000124849
2.4409e-07
0.000713742
0.000895708
9.31165e-09
1.17995e-08
1.18866e-08
0.00105191
2.6078e-10
0
0.00101138
2.90662e-10
0.0024256
2.11787e-10
0.000654899
0.00597704
1.18286e-08
0
0.0220576
0.00567763
0
0.0537745
0.000663656
3.03666e-07
3.77948e-07
0
7.68448e-05
0.000420939
0.0100322
7.76695e-07
0.00161583
0.0105793
0
0
0.000772844
0
0.00738706
4.70657e-05
0
4.18624e-07
4.2495e-07
0
5.30044e-07
0
0.000203922
2.90056e-08
1.15152e-06
0.0178743
0.000371339
6.3061e-09
5.11597e-09
4.62905e-09
4.33893e-08
0.000650272
1.27421e-07
8.94806e-08
0.000878968
0.008733
0
0.00127262
1.85396e-05
4.61723e-08
0.00111908
3.54343e-08
1.04188e-05
2.45824e-08
4.24735e-09
5.61729e-05
0.000286342
0.000616295
3.04324e-07
5.94775e-08
0.00030189
0.000436412
1.35015e-07
0.000434019
1.76393e-09
0.00248915
3.36335e-05
0.0189556
3.04979e-05
0.0189188
0.0154568
0.0137305
1.63475e-08
0.000139231
0.0201995
0.0189632
0
0.0197689
1.40806e-05
2.04113e-05
0.0142086
0
0
0
0
1.23126e-08
0.00111193
0
0.000870419
0
0.0270818
0.0243673
0.0245569
4.03896e-07
3.14674e-07
3.28497e-07
2.42242e-06
0.000455881
0.00106775
0.000564886
0
0
0
0.000425438
1.85764e-06
0
0.000561424
0
0.000942115
0.00395734
0
2.57752e-05
5.011e-09
3.03716e-07
0.00114101
6.73297e-07
3.29444e-05
0.00160311
4.83836e-06
0.00169537
1.10226e-06
0
0.00574192
0.00538261
4.35792e-06
0.0083223
0.00814402
0.00648913
1.9769e-09
1.73843e-09
0.0171394
0.00142735
5.77871e-06
4.92337e-10
0.00625232
0.000441137
1.59156e-05
0.00059634
3.46719e-06
0
0.000252452
0.00916454
1.47861e-09
0.00898023
0.000425396
0.000259063
0.00406895
1.27992e-06
7.12326e-05
0
7.08887e-05
0
1.25869e-06
0.000194308
2.10651e-06
0.00811388
4.72066e-09
9.84201e-09
8.72231e-09
0.0292469
8.92616e-09
0.000517429
4.78184e-10
0.000331271
4.22106e-08
3.63343e-10
0
4.03147e-10
2.32441e-10
0
0
0.0130733
0.000207546
9.56346e-08
0.000142648
7.47719e-09
7.12524e-09
0.000875706
9.58082e-09
0.000895829
0.000761422
0.000160054
0.00025665
0.0217842
5.3472e-08
3.37951e-10
3.68364e-08
0.000191415
5.07627e-10
6.54909e-10
5.58243e-10
0.000185615
0.00125138
0.0102918
2.71801e-08
8.34961e-05
7.92112e-05
0
2.56868e-10
2.11518e-10
0
0
0
0.000929749
0
3.9923e-07
0
0
3.87827e-07
6.36474e-09
4.01505e-05
0
0.000230049
0
2.08697e-07
0
0
0.000412011
0.00054712
0.000714864
0.00047742
6.84574e-08
1.12249e-07
0
5.47218e-08
0
3.06221e-07
0.000192756
0
4.25063e-08
0.022316
2.2847e-05
3.4945e-10
2.60743e-10
0.000762021
5.32103e-06
4.50015e-10
3.34241e-10
0.00375667
8.46868e-10
6.58153e-10
6.30775e-10
4.89392e-10
0.0197594
0.000234737
6.77121e-10
0
0.000318177
1.44614e-10
0.000802468
6.2557e-10
1.42466e-10
0.000982699
4.98185e-10
0.00295056
3.80405e-10
6.36733e-10
0.000481001
2.41493e-06
0.0490029
0.00167885
2.44478e-06
1.72518e-06
0.00131284
1.02948e-10
0.0156102
1.42448e-10
8.62473e-06
0.0155827
1.55388e-05
0.0123843
6.75854e-06
2.3606e-05
9.91361e-06
2.9413e-05
3.16522e-10
3.42947e-10
0.0103565
1.43222e-06
0.00274905
1.78366e-06
0.000429351
2.28428e-06
1.64982e-06
0.0410224
2.63474e-06
2.22233e-06
1.57616e-05
1.69328e-05
2.25953e-05
0.00359919
1.04372e-09
5.17173e-10
0.00335567
0
0
1.35176e-10
5.86088e-05
1.62214e-06
1.42793e-08
6.65749e-05
5.64143e-05
9.57542e-05
6.10246e-09
0.000615618
1.89611e-06
0.00132455
1.35196e-10
9.09925e-07
0.00825977
0
0.00228493
1.62683e-08
9.90111e-06
9.5103e-06
0
0
0.000646227
0
1.78515e-05
0.00203103
0
0.0045758
0.0055853
0
4.09208e-10
3.47444e-10
0.0311224
7.03653e-10
2.53106e-06
0.000470135
2.04187e-10
0.000832663
3.02211e-10
1.94384e-10
1.58389e-10
1.25072e-10
0.000452644
0.00625117
1.54046e-10
0.0175109
1.63147e-06
0.0385464
0.0390957
0.0411192
0.00109748
0.000959978
0.00102984
9.29291e-09
0.00455456
7.74189e-09
4.49977e-10
1.40947e-10
0.000997811
2.10224e-10
2.69926e-10
2.2927e-10
0.0101222
2.91743e-10
1.94938e-10
0
1.3774e-10
1.10855e-10
1.74685e-10
0.000865598
0
0
0.0340045
2.63564e-07
0.0388157
0.000591597
3.0552e-06
2.61081e-06
0.0101994
0.00731925
1.06149e-05
0.0191217
0.00100236
0.00148659
0.00749741
0
0
0
5.10357e-07
0.00106285
0.00122706
0
0
7.12846e-07
0
5.5416e-07
2.00306e-06
3.7305e-07
0.000109739
0.000133698
2.81241e-07
3.20799e-10
5.0508e-09
0.00993685
3.30031e-10
5.6608e-09
0
0
0
1.44559e-09
0.0258119
4.23895e-10
0.0240678
4.5991e-08
1.82817e-05
1.99053e-05
2.67888e-05
0.00438373
0.0046098
0.00492516
7.63133e-05
0
7.02316e-06
0.00188148
0.00457038
0.00187577
0
0.00430073
0.00221211
0.00246429
1.7844e-10
1.18863e-05
0.0023475
0.0030399
1.86013e-05
5.83856e-09
0.00546548
0.00100755
0.000804253
0.00140872
0.000256498
3.31982e-07
0.000155357
1.45076e-07
0.000113521
0.000147582
0.0102051
0.0115225
0.0204443
0.022473
0.0236436
0.000372494
0.000235051
0.0165776
0.018204
4.03889e-08
2.54977e-07
0.017517
0.0202606
0.000128629
0.000141985
0.00011711
0.0118604
0.013179
0.000869537
0.0149454
6.06236e-05
7.17573e-05
9.07344e-05
0.00817004
0.00916837
0.0105213
2.9131e-09
1.78014e-09
7.79511e-06
0.00622401
0.00591076
0.0071979
0.000950795
0.00657642
0.00821403
0.00797742
9.16261e-10
2.89333e-05
3.34224e-07
3.91479e-05
6.1414e-05
5.97968e-09
0.00446297
0.00522556
0.00614328
0
1.52771e-10
0
0
7.1902e-05
5.1326e-05
0
0.0014353
1.29053e-07
0
0
2.08128e-06
0
0.00507196
0.00811554
2.07152e-06
7.71118e-07
8.57649e-07
6.55367e-07
1.11192e-06
9.66763e-07
8.19351e-07
1.58875e-06
3.57195e-10
2.34566e-06
2.36704e-06
7.0231e-05
9.70889e-05
2.16009e-07
3.94403e-07
0
0.00224155
0
4.37474e-05
5.54182e-05
0.00298588
8.31606e-07
7.54074e-07
0
6.12254e-08
6.49174e-09
0.00147079
1.34951e-07
3.19831e-09
0.000339297
0
0.000534597
0
0
0.000435882
2.69427e-08
4.61289e-05
0
0.000640852
7.92257e-05
9.66937e-08
3.78494e-08
5.64965e-05
0
5.11264e-07
0.00017795
4.51384e-07
5.0634e-07
8.98589e-05
5.29627e-07
0.00149327
0.00167674
1.02907e-10
0.000355093
0.00129416
0
0
0.0363941
0.00148975
0.00051655
0
0.000562344
0
3.13123e-07
0.000955683
0.0010109
0.000809963
4.59842e-07
4.12125e-07
0.0112313
0.000413157
0.000330109
1.24045e-09
0.000156283
0.000193909
0
4.6709e-08
0.0199738
0.000332112
6.03874e-10
5.98015e-09
0.00326669
0.00418899
4.29718e-06
0.00131486
0.00146982
9.08965e-06
0.00150074
0
0.000184328
8.82728e-07
1.21178e-05
0.00198986
1.57607e-09
0.00230602
0.00669597
2.30556e-10
0
0.00415584
2.50889e-09
0.00140406
1.02032e-08
2.5119e-08
0.000115384
2.29207e-08
0
0
0
2.2449e-08
1.12645e-08
0
0.000460793
0
0.000181664
7.56901e-09
8.88838e-09
0
5.1183e-08
0.000183079
0.000286945
1.13116e-07
0
0
4.76433e-05
5.83082e-05
4.40796e-05
0.0110504
6.28253e-05
0
0
5.34936e-05
7.40912e-05
3.58614e-07
4.44014e-05
0.000356771
0
0
3.30605e-09
0.000587945
3.65026e-09
2.19657e-09
7.5478e-05
4.95453e-08
2.03854e-08
5.22554e-05
0.00595691
0.00764574
0
2.27984e-09
0.00544129
2.91883e-09
2.81596e-09
4.689e-09
0.0288004
1.10581e-07
2.7967e-09
1.22116e-09
1.52284e-07
0.000626791
4.1234e-09
0.000754903
0.00052244
0.0166572
0
0.000158201
0.000190587
0.000253096
0.000404206
3.49579e-07
0.000256903
1.75764e-07
8.21531e-08
0.000161597
0.000137552
7.20889e-09
0.000100366
3.18158e-08
0.000114914
0.0120779
0
1.19372e-05
0
7.80868e-06
1.61931e-09
3.10105e-09
1.78471e-05
8.48883e-08
7.47866e-06
0.00027347
0
0
4.30056e-10
0.0125804
0.0152693
0
0.00145179
0
0
0
3.97944e-05
1.54174e-08
0.003754
0
0.00696935
9.08177e-09
0
0.000104052
0.00063639
0.0422677
0.0220297
0.0404082
0.0475706
0.00186506
0.0392686
0.00639657
3.77429e-08
0.00910555
0.00208404
1.5698e-08
0.00780633
0.00780856
6.44733e-10
0.000165911
2.63241e-08
0
5.84607e-05
0.00104991
1.26393e-06
6.59358e-07
0.000812425
0.0332865
5.141e-06
0
0.000600212
2.86793e-08
0.00689311
0.0314047
0.00138204
0.0357519
0.00213853
3.78111e-06
0.000127846
0.0352617
0.00518371
7.6847e-05
0.0011259
1.17288e-06
1.81686e-06
0.00441006
9.9696e-09
0.000158769
7.07712e-07
5.45422e-05
2.77637e-08
0.0138453
0.00012567
1.64317e-07
6.73625e-08
5.92502e-05
0.0022099
0
0.0308222
0
0
0
0.000103256
0
8.20637e-05
3.33004e-07
5.12364e-05
0.0344389
1.86443e-07
0.000856411
0.000100135
6.06907e-08
1.83695e-10
0
4.3161e-10
2.37923e-05
0
0
0
4.96008e-09
0.0312445
5.16105e-07
0.0496559
0.00672576
0.0124775
8.9545e-08
9.23096e-09
0.00387391
0.00427579
9.9771e-09
0.0359812
0.0184459
1.16858e-07
4.10126e-09
0
4.51884e-09
6.47605e-08
5.35983e-05
0.00254607
0.0319069
0.00383342
2.56972e-09
2.9709e-09
3.6822e-09
2.97281e-09
0.00118219
0.0335898
0.000811545
0
0.0012845
0.0387406
0
3.32044e-06
0.01034
7.33791e-10
0.0368309
0.00385969
0.00163983
0
1.06354e-09
1.3184e-06
0.00114802
0
0.000978791
1.08285e-10
0.0140112
5.21715e-07
4.33848e-05
0.000991646
0
0
1.67062e-09
4.45662e-06
0.00104042
8.77555e-07
0
0.000926427
0.00158971
5.99233e-10
1.60045e-07
0.000656752
0.000879448
3.78394e-07
0
6.5148e-06
0.00071278
0
2.87392e-06
0
1.99583e-09
2.85037e-09
0
1.43261e-08
0
1.49477e-05
0.000731525
0.00066045
0
0.000125539
5.86156e-10
4.24808e-06
0.000533385
5.9031e-08
1.50003e-09
0.0221501
1.80823e-06
1.91283e-10
0.000152988
0
0.0103642
1.93164e-06
1.2777e-05
0.00214285
4.51587e-09
0.000809379
4.33647e-09
0.00321747
8.23235e-06
8.94457e-10
1.52512e-10
0.0120426
0
7.19841e-10
0
0.00896034
0
0.00655638
1.02727e-08
3.76028e-05
6.805e-05
2.2883e-08
8.16503e-09
0
1.45155e-09
0.000460746
4.74449e-08
0.00988199
0.00622493
2.29305e-07
3.48974e-05
1.50501e-08
4.8243e-05
5.99165e-05
0.00396666
1.62376e-05
3.81507e-05
1.15701e-08
0.00433304
7.50803e-05
1.1679e-05
0.00451363
1.71563e-05
0
0.00011273
0.0052449
0
2.53455e-05
4.85167e-10
0.015086
0.00134785
0
9.67135e-09
0.00479839
0.00572682
8.03426e-09
1.44432e-08
5.48985e-06
2.65659e-05
0
0.00325819
7.40994e-06
3.06039e-05
6.55084e-09
3.17004e-08
0
2.37033e-07
0.00129722
0
1.0941e-05
0
0.0145304
0.000373241
1.15705e-10
2.28198e-05
0
0.000373714
0.0014324
0.0138149
0.000264743
0.00377668
0
7.73572e-09
2.03001e-06
7.3355e-07
0
0
0
4.51984e-10
8.7275e-09
0.00483212
0
3.29481e-10
0.00291575
0.00214937
1.98916e-10
0.00540169
2.72041e-05
0.00373666
0.00393093
0.000924251
0.00735381
0.000566439
0.0659413
1.29005e-05
0.00246609
4.75365e-10
0.0459824
5.73308e-08
1.67244e-10
0.000975576
1.95621e-07
3.07844e-07
0.00133093
2.58116e-09
0.000909803
1.06016e-07
1.83618e-07
0
1.15769e-09
0.00184237
0.0178733
5.44494e-08
0.000596012
0.00662469
3.39981e-05
0
0.0221438
1.24377e-05
0
0.00122306
0.00155922
0.00148591
0.000116217
0.000720261
0.000239603
4.77387e-10
0.0015014
1.51678e-09
6.39219e-10
4.31977e-06
0.000145262
0
0.0616949
8.95548e-07
3.9296e-05
4.04132e-06
0
0.00325188
0.000103547
0
0
1.31104e-06
0
1.2589e-10
0
0.00659279
2.31772e-06
6.77863e-05
0
0
3.91275e-05
0
0
0.00337407
0
0.000769312
0
0
8.3486e-09
3.35512e-05
5.75403e-05
1.88473e-08
0
0
0.000323042
0.000349626
7.43255e-07
0.000736107
0.00114636
1.15798e-06
0
0
0.000124382
6.11069e-05
0
0
0
0.000171643
4.78339e-07
3.76875e-08
2.12747e-07
0
0
0
0
0
3.22625e-05
4.36431e-07
0
4.52333e-07
0.00103294
1.07082e-06
8.87203e-07
0.0158378
0.00554735
9.4979e-07
0
1.13714e-05
0
0.00581639
0
2.17161e-07
0.00094253
5.28669e-07
5.26124e-10
0.00351129
2.04733e-09
0
0.000376165
6.06621e-07
0.0199626
1.74432e-05
0.0200275
0.00559608
1.01483e-06
7.50673e-09
1.99861e-08
0.00771349
0.00812039
1.70052e-05
3.76466e-09
9.81865e-05
3.72485e-08
0
0
8.70722e-10
1.70504e-06
0.000763902
0.00083663
3.33128e-06
0.000230724
1.19076e-08
0
0.0262443
0.00490561
0.000699193
0
0.00417233
2.09161e-06
0.0453993
3.98169e-10
0.000670227
0.000130946
0.0151593
0.00099218
0
0.000300289
1.40222e-08
0.0140522
0.000307537
0.00838375
0.000563085
4.18609e-10
2.04175e-10
0
9.69179e-08
0.000284337
5.50828e-06
2.61773e-07
1.78737e-10
0
0.00281291
2.09432e-09
0.00643256
0.00677481
0.00586023
0.00605155
0.0120444
1.95163e-07
0
0.0395698
0.0110104
0
2.78484e-08
0.000423654
0.000645206
6.34149e-08
0
0.0136947
2.69405e-06
0.000525062
3.86774e-10
0.016941
0
1.06241e-10
2.16578e-07
0.0156648
0
0.0121371
0.000395827
8.78284e-07
0.0410424
0.000107132
0.000300909
0
0.0226179
0.00377144
0.00321939
0.00468368
0.00739112
0.000669711
6.3615e-05
0.0128899
0.0175248
0
0.0361317
2.80596e-10
1.17512e-06
0.0132415
0.00945538
1.13572e-08
0.0161573
0.0428633
7.19492e-07
0.00073248
0.000740053
9.99668e-07
0.0167095
0.00427982
7.00408e-06
4.70105e-05
0.00357213
0.0512148
0
0.0046801
8.28299e-10
1.78335e-07
0
0.00122009
1.52129e-07
0.00806757
1.13863e-09
0.00128591
0
0.000246799
0.00337239
3.11317e-05
1.87922e-05
0.00291662
1.64837e-05
0.00851593
0.00123748
0
0.0152338
0.000574886
0.00336957
1.20061e-06
0.000598323
0.00101195
0
0.0373134
0.000485906
4.79378e-08
1.63656e-06
0.00560498
0
0.00132486
1.81392e-08
0.004262
0.0103718
1.46529e-06
5.57527e-05
1.69562e-08
5.22288e-08
0.00107736
0.00141538
0.0640647
3.8181e-10
0.0012004
0.00168591
0.00374745
0.0515139
1.32614e-05
0.0237259
2.936e-08
1.01538e-08
0.000498501
2.90612e-07
0.000654145
7.91434e-08
0.0134748
0
1.72748e-06
0.0164084
0.00121098
0
0.00109839
0.000163687
0.00747381
0.0123022
0
9.05381e-05
2.28397e-07
0.00124822
2.30858e-10
0.00129834
1.38916e-06
2.12778e-09
8.20054e-06
1.8564e-05
4.65435e-09
0.0443356
1.89929e-09
1.48627e-06
0.00110636
1.62415e-10
0.0056577
0.0469621
0.00044076
2.14584e-10
1.91021e-06
0.0481587
3.26333e-09
0.00779981
2.02012e-09
2.4238e-09
0.00218834
0.0154684
2.06738e-06
0.000634952
0
0
7.02996e-08
7.17389e-06
0.000903231
0
0.000529861
0.000778394
2.46514e-07
0
1.15534e-08
1.51349e-07
1.95001e-08
0.0107975
4.87397e-09
0.0485992
2.24619e-09
1.51181e-09
0
9.67828e-09
0
0
6.51996e-05
0.00475137
3.85384e-08
0
0.0206222
2.40216e-07
1.38981e-08
1.94574e-07
0
0.00263399
0.0114472
5.60482e-07
0.000445413
0.0385778
4.75485e-08
7.83923e-08
0
0.000119385
4.13313e-09
1.87115e-09
3.9642e-05
0.0104918
5.02514e-08
0.00137008
3.44943e-08
0.000426202
0.00384611
0.0257377
0
0.000248334
0.0441864
0.00261365
0.00086186
8.61327e-07
0.053108
0.013181
0.000690404
4.91807e-05
0.015324
8.71521e-08
1.62534e-07
9.91162e-05
3.38843e-06
0.00068816
2.04881e-10
8.68969e-06
0.000832274
1.74783e-05
0.0014124
3.76059e-10
1.90603e-10
4.76299e-05
0.00269757
1.06955e-05
3.65976e-06
0.00191451
0.0010666
0.0584882
0.00509199
1.51518e-06
0.000438109
0.0271582
0.0214617
0.000423851
0
0.00363719
9.7798e-07
0.000988307
0
0.000375911
1.56122e-08
0.0198118
7.60119e-08
0.000535845
4.58751e-08
0
0.000582677
6.24296e-09
0.000227961
0.019217
5.26963e-09
1.74542e-06
2.04663e-08
0.00517991
2.39115e-07
1.12577e-10
2.788e-09
0.00443299
0.00440898
0.00508471
0.0121077
0.00124325
4.68079e-08
0.0117857
0.0087188
0.0556138
0.00468267
0.00270286
3.15202e-10
2.823e-06
0.000514677
0.0112548
2.39816e-05
0.00225147
0.00443807
0.0428416
0
2.44839e-10
0.00145788
1.72058e-06
1.03385e-06
0.000983623
0.00308056
6.78645e-09
3.43939e-05
0.0475053
0.0502408
0.00322677
0.00378738
6.68245e-10
0.0521806
2.12716e-08
0.00421931
7.63088e-10
0.0534104
1.4004e-10
0.00561348
0
0.0341213
0.000692537
1.20202e-06
7.11311e-08
0.000128287
0.000122602
6.60445e-07
0.000112929
0
0.00884837
4.60171e-07
0
0
0.0332504
6.38696e-05
0
0.00257012
1.77412e-09
0
0
0.000612644
0
0
0.000123212
0.000243549
1.31043e-08
8.03353e-05
3.13265e-08
0
2.33075e-07
1.03415e-08
1.62183e-08
0.000459966
3.53107e-09
0.00402257
4.92453e-09
0
0
0.000263693
1.33783e-06
5.1074e-09
1.30162e-09
0.0023008
0
0.00187602
0
0.00112351
0.0021818
1.27341e-09
0.000979016
2.15861e-05
0
0
0.000179239
0.0554078
1.1925e-09
0.00102817
3.90997e-07
0
6.24724e-05
0.00498504
6.43909e-05
0.00548419
6.88473e-05
0.00311311
6.69466e-06
0.00445731
5.36046e-05
0
9.04705e-10
2.45296e-08
0.012135
1.6664e-07
1.99756e-08
0.00989728
6.75661e-10
0.0200507
0.00186259
0.0217171
3.63801e-05
0
0
0.000850906
0.00177649
0
5.58483e-07
6.97486e-07
0.0076585
0.0157447
0.000172905
0.000319429
0.000439414
5.80199e-07
5.49668e-06
0
0
0.0120947
0
0.000410137
0.00178352
1.90074e-09
0
0.00055252
0.0171857
0.00323207
1.48567e-09
2.43406e-09
1.91846e-09
2.17924e-09
1.32241e-05
1.3041e-09
1.31196e-05
1.76611e-06
0.0270806
0
0.00526745
1.67746e-09
1.87849e-05
2.16226e-09
1.66508e-10
2.5228e-09
0.0490532
0.00517139
2.76727e-09
1.02003e-05
6.52506e-09
7.43825e-06
0.00749324
1.17661e-09
8.92717e-09
9.13016e-05
9.96182e-05
4.72325e-07
7.57579e-05
8.50679e-10
0.00135423
6.69787e-05
0.000404143
2.37603e-08
1.07618e-08
0.000238108
0.00520833
2.12054e-08
0
0
7.28487e-09
1.24278e-07
1.8507e-08
0.00026199
0.00712609
0.00631432
0
0.00115055
3.9921e-05
3.29113e-05
0.0133315
0
5.40509e-05
0
0.000775777
0.00498255
7.01487e-09
0
1.10189e-09
0
0.00725041
0.006566
3.17012e-05
0
0
6.58939e-05
2.57398e-08
2.55128e-08
0.00879977
0.00157855
9.2261e-05
0
3.63821e-09
7.9746e-05
4.34891e-06
0.0385329
0.0218908
0.0416602
0
0
0
0
1.56032e-09
0
3.06484e-05
3.07517e-05
0.00171233
0.041248
0.000853813
0.000649736
1.11018e-07
0
1.41088e-07
1.37963e-06
2.38828e-08
5.04428e-09
0.00682598
3.71907e-10
1.98573e-05
3.05202e-05
0.00834735
8.40282e-07
2.49391e-05
0.00889815
0
0
6.8465e-10
0.00539696
0.00570419
3.95436e-09
2.54433e-10
0.00486685
0
0.00429964
0.0146593
0.00597517
0.0058903
0
6.00367e-10
0.00088267
0.000170923
9.14025e-07
0.000414036
0
0
0.00137024
2.27386e-07
3.33957e-07
2.40461e-07
0.00896998
0
0.00906163
0.0107208
3.67549e-08
0
0
2.54218e-06
6.36373e-10
0
0.0175969
0.00158332
0.000183377
0.000176153
4.4378e-07
9.23568e-09
0.00023589
0.000355485
2.08764e-08
0.0231832
0.000193302
3.09983e-07
1.24676e-07
0.000113449
0.000116888
0.000256833
5.25922e-09
8.96343e-09
1.23442e-10
0.000818325
0
8.79773e-05
5.05853e-09
0.000116479
5.91068e-05
1.7101e-08
3.16623e-08
0.00025252
0
0.000139807
0.000974295
0.000119147
2.98029e-06
0
0.00785707
0.00857463
0.000132028
0.0263093
0.00971046
2.86859e-10
0.000145483
0.000102897
0.0281884