# vtk DataFile Version 2.0
Unstructured Grid by M++
ASCII
DATASET UNSTRUCTURED_GRID
POINTS 4072 float
  0.609375   0.843750 0
  0.562500   0.843750 0
  0.531250   0.843750 0
  0.875000   0.828125 0
  0.984375   0.828125 0
  0.953125   0.828125 0
  0.937500   0.828125 0
  0.843750   0.828125 0
  0.812500   0.828125 0
  0.781250   0.828125 0
  0.765625   0.828125 0
  0.734375   0.828125 0
  0.703125   0.828125 0
  0.671875   0.828125 0
  0.640625   0.828125 0
  0.609375   0.828125 0
  0.593750   0.828125 0
  0.562500   0.828125 0
  0.546875   0.828125 0
  0.531250   0.828125 0
  0.515625   0.828125 0
  0.968750   0.812500 0
  0.937500   0.812500 0
  0.921875   0.812500 0
  0.890625   0.812500 0
  0.859375   0.812500 0
  0.828125   0.812500 0
  0.796875   0.812500 0
  0.765625   0.812500 0
  0.750000   0.812500 0
  0.718750   0.812500 0
  0.687500   0.812500 0
  0.656250   0.812500 0
  0.625000   0.812500 0
  0.593750   0.812500 0
  0.578125   0.812500 0
  0.546875   0.812500 0
  0.531250   0.812500 0
  0.515625   0.812500 0
  0.984375   0.796875 0
  0.562500   0.015625 0
  0.953125   0.796875 0
  0.921875   0.796875 0
  0.906250   0.796875 0
  0.875000   0.796875 0
  0.843750   0.796875 0
  0.812500   0.796875 0
  0.781250   0.796875 0
  0.750000   0.796875 0
  0.734375   0.796875 0
  0.703125   0.796875 0
  0.671875   0.796875 0
  0.640625   0.796875 0
  0.609375   0.796875 0
  0.578125   0.796875 0
  0.562500   0.796875 0
  0.531250   0.796875 0
  0.515625   0.796875 0
  0.968750   0.781250 0
  0.546875   0.000000 0
  0.937500   0.781250 0
  0.906250   0.781250 0
  0.890625   0.781250 0
  0.859375   0.781250 0
  0.828125   0.781250 0
  0.796875   0.781250 0
  0.765625   0.781250 0
  0.734375   0.781250 0
  0.718750   0.781250 0
  0.687500   0.781250 0
  0.656250   0.781250 0
  0.625000   0.781250 0
  0.593750   0.781250 0
  0.562500   0.781250 0
  0.546875   0.781250 0
  0.515625   0.781250 0
  0.984375   0.765625 0
  0.953125   0.765625 0
  0.921875   0.765625 0
  0.890625   0.765625 0
  0.875000   0.765625 0
  0.843750   0.765625 0
  0.812500   0.765625 0
  0.781250   0.765625 0
  0.750000   0.765625 0
  0.718750   0.765625 0
  0.703125   0.765625 0
  0.671875   0.765625 0
  0.640625   0.765625 0
  0.609375   0.765625 0
  0.578125   0.765625 0
  0.593750   0.750000 0
  0.562500   0.765625 0
  0.546875   0.765625 0
  0.531250   0.765625 0
  0.562500   0.750000 0
  0.968750   0.750000 0
  0.937500   0.750000 0
  0.906250   0.750000 0
  0.875000   0.750000 0
  0.859375   0.750000 0
  0.828125   0.750000 0
  0.796875   0.750000 0
  0.765625   0.750000 0
  0.734375   0.750000 0
  0.703125   0.750000 0
  0.687500   0.750000 0
  0.671875   0.750000 0
  0.656250   0.750000 0
  0.625000   0.750000 0
  0.546875   0.750000 0
  0.531250   0.750000 0
  0.515625   0.750000 0
  0.562500   0.734375 0
  0.984375   0.734375 0
  0.953125   0.734375 0
  0.921875   0.734375 0
  0.890625   0.734375 0
  0.859375   0.734375 0
  0.843750   0.734375 0
  0.812500   0.734375 0
  0.781250   0.734375 0
  0.750000   0.734375 0
  0.718750   0.734375 0
  0.687500   0.734375 0
  0.671875   0.734375 0
  0.656250   0.734375 0
  0.640625   0.734375 0
  0.546875   0.734375 0
  0.531250   0.734375 0
  0.515625   0.734375 0
  0.562500   0.718750 0
  0.968750   0.718750 0
  0.937500   0.718750 0
  0.906250   0.718750 0
  0.875000   0.718750 0
  0.843750   0.718750 0
  0.796875   0.718750 0
  0.765625   0.718750 0
  0.734375   0.718750 0
  0.703125   0.718750 0
  0.687500   0.718750 0
  0.671875   0.718750 0
  0.656250   0.718750 0
  0.625000   0.718750 0
  0.546875   0.718750 0
  0.531250   0.718750 0
  0.515625   0.718750 0
  0.562500   0.703125 0
  0.953125   0.703125 0
  0.921875   0.703125 0
  0.890625   0.703125 0
  0.859375   0.703125 0
  0.828125   0.703125 0
  0.781250   0.703125 0
  0.750000   0.703125 0
  0.718750   0.703125 0
  0.687500   0.703125 0
  0.656250   0.703125 0
  0.546875   0.703125 0
  0.531250   0.703125 0
  0.515625   0.703125 0
  0.984375   0.687500 0
  0.937500   0.687500 0
  0.921875   0.687500 0
  0.906250   0.687500 0
  0.875000   0.687500 0
  0.843750   0.687500 0
  0.812500   0.687500 0
  0.765625   0.687500 0
  0.734375   0.687500 0
  0.703125   0.687500 0
  0.671875   0.687500 0
  0.640625   0.687500 0
  0.593750   0.687500 0
  0.562500   0.687500 0
  0.546875   0.687500 0
  0.531250   0.687500 0
  0.515625   0.687500 0
  0.968750   0.671875 0
  0.937500   0.671875 0
  0.921875   0.671875 0
  0.906250   0.671875 0
  0.890625   0.671875 0
  0.859375   0.671875 0
  0.828125   0.671875 0
  0.796875   0.671875 0
  0.765625   0.671875 0
  0.750000   0.671875 0
  0.718750   0.671875 0
  0.687500   0.671875 0
  0.656250   0.671875 0
  0.625000   0.671875 0
  0.593750   0.671875 0
  0.578125   0.671875 0
  0.546875   0.671875 0
  0.531250   0.671875 0
  0.515625   0.671875 0
  0.984375   0.656250 0
  0.953125   0.656250 0
  0.937500   0.656250 0
  0.921875   0.656250 0
  0.906250   0.656250 0
  0.875000   0.656250 0
  0.843750   0.656250 0
  0.812500   0.656250 0
  0.781250   0.656250 0
  0.750000   0.656250 0
  0.734375   0.656250 0
  0.703125   0.656250 0
  0.671875   0.656250 0
  0.640625   0.656250 0
  0.609375   0.656250 0
  0.578125   0.656250 0
  0.562500   0.656250 0
  0.531250   0.656250 0
  0.515625   0.656250 0
  0.968750   0.640625 0
  0.937500   0.640625 0
  0.906250   0.640625 0
  0.890625   0.640625 0
  0.859375   0.640625 0
  0.828125   0.640625 0
  0.796875   0.640625 0
  0.765625   0.640625 0
  0.734375   0.640625 0
  0.718750   0.640625 0
  0.687500   0.640625 0
  0.656250   0.640625 0
  0.625000   0.640625 0
  0.593750   0.640625 0
  0.562500   0.640625 0
  0.546875   0.640625 0
  0.515625   0.640625 0
  0.984375   0.625000 0
  0.953125   0.625000 0
  0.921875   0.625000 0
  0.890625   0.625000 0
  0.875000   0.625000 0
  0.843750   0.625000 0
  0.812500   0.625000 0
  0.781250   0.625000 0
  0.750000   0.625000 0
  0.734375   0.625000 0
  0.718750   0.625000 0
  0.703125   0.625000 0
  0.671875   0.625000 0
  0.640625   0.625000 0
  0.609375   0.625000 0
  0.578125   0.625000 0
  0.562500   0.625000 0
  0.546875   0.625000 0
  0.531250   0.625000 0
  0.968750   0.609375 0
  0.937500   0.609375 0
  0.906250   0.609375 0
  0.875000   0.609375 0
  0.859375   0.609375 0
  0.828125   0.609375 0
  0.796875   0.609375 0
  0.765625   0.609375 0
  0.750000   0.609375 0
  0.734375   0.609375 0
  0.718750   0.609375 0
  0.703125   0.609375 0
  0.687500   0.609375 0
  0.656250   0.609375 0
  0.625000   0.609375 0
  0.593750   0.609375 0
  0.562500   0.609375 0
  0.546875   0.609375 0
  0.531250   0.609375 0
  0.515625   0.609375 0
  0.984375   0.593750 0
  0.953125   0.593750 0
  0.921875   0.593750 0
  0.890625   0.593750 0
  0.859375   0.593750 0
  0.843750   0.593750 0
  0.812500   0.593750 0
  0.781250   0.593750 0
  0.750000   0.593750 0
  0.734375   0.593750 0
  0.718750   0.593750 0
  0.687500   0.593750 0
  0.671875   0.593750 0
  0.640625   0.593750 0
  0.609375   0.593750 0
  0.578125   0.593750 0
  0.562500   0.593750 0
  0.546875   0.593750 0
  0.531250   0.593750 0
  0.515625   0.593750 0
  0.968750   0.578125 0
  0.937500   0.578125 0
  0.906250   0.578125 0
  0.875000   0.578125 0
  0.890625   0.562500 0
  0.843750   0.578125 0
  0.828125   0.578125 0
  0.796875   0.578125 0
  0.765625   0.578125 0
  0.734375   0.578125 0
  0.703125   0.578125 0
  0.671875   0.578125 0
  0.656250   0.578125 0
  0.656250   0.562500 0
  0.625000   0.578125 0
  0.640625   0.562500 0
  0.593750   0.578125 0
  0.562500   0.578125 0
  0.546875   0.578125 0
  0.531250   0.578125 0
  0.515625   0.578125 0
  0.859375   0.562500 0
  0.828125   0.562500 0
  0.781250   0.562500 0
  0.750000   0.562500 0
  0.718750   0.562500 0
  0.687500   0.562500 0
  0.609375   0.562500 0
  0.578125   0.562500 0
  0.562500   0.562500 0
  0.546875   0.562500 0
  0.531250   0.562500 0
  0.515625   0.562500 0
  1.000000   0.812500 0
  0.578125   0.031250 0
  0.875000   0.546875 0
  0.625000   0.546875 0
  0.218750   0.000000 0
  0.640625   0.781250 0
  0.828125   0.093750 0
  0.031250   0.531250 0
  0.296875   0.328125 0
  0.296875   0.312500 0
  0.281250   0.312500 0
  0.765625   0.312500 0
  0.031250   0.859375 0
  0.093750   0.265625 0
  0.109375   0.250000 0
  0.187500   0.671875 0
  0.421875   0.640625 0
  0.031250   0.062500 0
  0.140625   0.125000 0
  0.562500   0.906250 0
  0.125000   0.437500 0
  0.203125   0.937500 0
  0.125000   0.421875 0
  0.140625   0.406250 0
  0.093750   0.437500 0
  0.109375   0.421875 0
  0.093750   0.421875 0
  0.109375   0.406250 0
  0.328125   0.125000 0
  0.750000   0.906250 0
  0.328125   0.109375 0
  0.750000   0.890625 0
  0.312500   0.125000 0
  0.734375   0.906250 0
  0.281250   0.343750 0
  0.265625   0.359375 0
  0.500000   0.796875 0
  0.078125   0.015625 0
  0.062500   0.015625 0
  0.484375   0.796875 0
  0.484375   0.781250 0
  0.062500   0.000000 0
  0.015625   0.250000 0
  0.062500   0.046875 0
  0.484375   0.828125 0
  0.484375   0.812500 0
  0.062500   0.031250 0
  0.281250   0.671875 0
  0.062500   0.234375 0
  0.328125   0.765625 0
  0.312500   0.750000 0
  0.015625   0.671875 0
  0.781250   0.187500 0
  0.015625   0.265625 0
  0.453125   0.250000 0
  0.453125   0.234375 0
  0.031250   0.265625 0
  0.046875   0.250000 0
  0.093750   0.015625 0
  0.265625   0.656250 0
  0.734375   0.281250 0
  0.156250   0.015625 0
  0.062500   0.265625 0
  0.046875   0.281250 0
  0.031250   0.281250 0
  0.343750   0.781250 0
  0.328125   0.781250 0
  0.265625   0.687500 0
  0.265625   0.703125 0
  0.156250   0.109375 0
  0.578125   0.890625 0
  0.484375   0.984375 0
  0.062500   0.203125 0
  0.328125   0.718750 0
  0.343750   0.734375 0
  0.343750   0.750000 0
  0.453125   0.500000 0
  0.437500   0.500000 0
  0.234375   0.093750 0
  0.171875   0.375000 0
  0.437500   0.531250 0
  0.468750   0.546875 0
  0.453125   0.546875 0
  0.187500   0.015625 0
  0.187500   0.000000 0
  0.609375   0.781250 0
[...]
CELL_DATA 7648
SCALARS scalar_value float 1
LOOKUP_TABLE default
1.20369e-08
1.34113e-08
1.63512e-08
1.17116e-08
0.000209506
0.000240556
0.000257095
0.000257018
1.27488e-08
1.56291e-08
1.69378e-08
0.000101833
0.000131826
9.55369e-05
1.54521e-09
1.2735e-09
1.3564e-09
9.53787e-10
0
0
0
0
0
0
0
0
0
1.21148e-07
1.39558e-07
0
0
0
0
0
0
0
0
0
0
0
0
0
1.16785e-07
1.93985e-07
2.24442e-07
3.55215e-06
4.43676e-06
5.23297e-06
0
4.55454e-06
3.68028e-05
0
0
0
4.22775e-07
0
6.24518e-07
3.5759e-07
0
0
0
0
0
1.16085e-06
8.88059e-07
0
0
0
5.71905e-10
0
0
0
2.77402e-09
6.30851e-09
7.43757e-07
0
5.58101e-08
0
9.03744e-07
1.43126e-08
2.17816e-08
0
0
0
1.3537e-05
0
0
0
3.2137e-06
0
0
0
0
0
0
0
6.08348e-07
0
7.09892e-07
9.65196e-07
1.00372e-08
0
1.22303e-08
2.57355e-08
0
1.81277e-10
1.51733e-09
1.24831e-05
1.67716e-05
0
0
2.76404e-08
2.91921e-08
0
0
0
0
0
0
0.000207731
0.000238911
0
0
0
0
0
0
6.52901e-07
8.97513e-07
5.61267e-07
0
9.60327e-07
0
3.29982e-05
2.18189e-10
3.94345e-05
4.74062e-08
0
0
3.56864e-06
1.0503e-06
4.31333e-06
4.70199e-06
0
4.9433e-06
3.81999e-06
0.000287758
0
4.66385e-05
1.59643e-06
1.65267e-06
0
0
0
0.000260573
0.000206283
6.63144e-05
0
5.15293e-06
0
0
0
0
1.60251e-09
3.05313e-06
4.17441e-06
0
2.78711e-06
0
0.000336687
0
1.46289e-06
7.83653e-06
8.7664e-05
2.28719e-08
0
0.000165104
1.24164e-06
3.75638e-10
1.45876e-06
2.02519e-06
5.92251e-10
1.69378e-05
9.27475e-08
0
0
3.00624e-05
0
0
2.01283e-07
0
2.88413e-07
2.70741e-06
0
0
3.36091e-06
3.87783e-06
3.67631e-06
0
0
0
2.70987e-05
0
3.95371e-05
3.87353e-05
0
0
4.90579e-05
6.79489e-05
4.92814e-05
0
0
0
0
8.42285e-07
0
0
0.000529126
0
1.39196e-07
3.02103e-07
1.19415e-06
1.58586e-06
0
1.25474e-06
0
4.51085e-08
1.33101e-07
1.12828e-06
9.24287e-07
9.05488e-05
7.09231e-05
5.39016e-07
1.23452e-10
7.7274e-05
8.87797e-05
9.3983e-05
9.5955e-05
4.32595e-07
0
3.76428e-07
0.000231648
0
1.90914e-06
2.35546e-06
7.73102e-07
4.13952e-10
6.90134e-07
9.0348e-07
0
7.15212e-07
5.39665e-07
0
0
0
5.82344e-08
0
3.6905e-06
5.16016e-06
0
0
0
1.86287e-06
0
0
6.06439e-07
0
2.6797e-06
0
3.43428e-07
7.11809e-06
0
0
0.000190246
0.000145421
0
0.000391891
2.47499e-06
0
0
0
2.29817e-08
1.46717e-06
0.000262063
1.28089e-10
5.6295e-06
0.000284052
0
0
1.41898e-06
0
7.30129e-05
1.20006e-07
0
0
0
0
0
0
6.84309e-07
0
1.91283e-10
0.00029894
1.67365e-06
0
0
0
0
2.0225e-06
0
0
1.53775e-06
7.15813e-05
0
8.57783e-06
9.58087e-09
0
7.28716e-06
0
4.57679e-09
0
0
1.6202e-08
3.22659e-07
8.37405e-07
0
0
3.83173e-07
5.72598e-07
0
7.46711e-07
0
3.49837e-06
9.17167e-09
0.000260788
8.20502e-09
0.000275249
8.47537e-05
7.7528e-05
0
1.53691e-07
0.00010464
0.000106396
0
0.00018407
3.49165e-09
5.27995e-09
0.000301228
0
0
0
0
0
2.58452e-06
0
1.79209e-06
0
0.000254501
0.000234572
0.000249298
0
0
0
4.34357e-10
6.5872e-07
6.14023e-06
1.03177e-06
0
0
0
4.98995e-07
3.22731e-10
0
2.84562e-07
0
5.70674e-07
9.28287e-05
0
7.4615e-08
0
0
2.51621e-06
3.51726e-10
8.55854e-08
1.42321e-06
1.44903e-09
1.55511e-06
1.81355e-10
0
2.77471e-05
2.9755e-05
8.67137e-10
3.48185e-05
3.99769e-05
2.23305e-05
0
0
9.87878e-05
1.18313e-05
1.1961e-09
0
1.72228e-05
7.08278e-07
4.22039e-08
1.03208e-06
6.56537e-10
0
9.23494e-08
3.10717e-05
0
0.000192212
1.31844e-06
8.04944e-07
7.15636e-05
2.30044e-10
2.37808e-07
0
2.50188e-07
0
2.14547e-10
6.68189e-08
3.73523e-10
0.000107224
0
0
0
0.000302848
0
1.42441e-06
0
4.68017e-07
0
0
0
0
0
0
0
4.91854e-05
1.61629e-07
0
9.58808e-08
0
0
1.95613e-06
0
2.07019e-06
1.81599e-06
1.59916e-07
3.01768e-07
7.71371e-05
0
0
0
2.09296e-07
0
0
0
4.73727e-07
7.65328e-06
3.63839e-05
0
5.13298e-08
7.34324e-08
0
0
0
0
0
0
8.15026e-07
0
0
0
0
0
0
2.77386e-08
0
1.6918e-07
0
0
0
0
2.76883e-07
3.77169e-07
5.15325e-07
7.46552e-07
0
0
0
0
0
0
5.59303e-07
0
0
0.000203246
1.27617e-08
0
0
2.09298e-06
1.62528e-09
0
0
6.75593e-06
0
0
0
0
0.000133609
4.8751e-07
0
0
6.93723e-07
0
4.78153e-07
0
0
6.5921e-07
0
4.86915e-06
0
0
2.39408e-06
6.57711e-10
0.000314665
2.547e-06
6.65955e-10
4.67467e-10
2.01972e-06
0
0.000226315
0
1.63208e-08
3.78257e-05
3.26897e-08
2.80959e-05
1.32973e-08
4.95119e-08
1.96769e-08
6.98385e-08
0
0
4.28058e-05
2.66517e-10
5.18554e-05
4.65673e-10
2.28594e-06
6.20129e-10
4.36364e-10
0.00020622
7.29402e-10
5.96336e-10
5.24888e-09
5.98333e-09
7.85333e-09
3.95515e-06
0
0
3.84865e-06
0
0
0
4.66657e-08
4.93404e-10
0
4.97251e-08
3.81918e-08
7.93114e-08
0
3.38733e-06
5.0468e-10
1.905e-06
0
1.47125e-10
1.20643e-05
0
3.56874e-05
0
3.14294e-09
2.97781e-09
0
0
3.7187e-06
0
4.4987e-09
2.24954e-06
0
4.99801e-06
6.6787e-06
0
0
0
0.00010619
0
5.17063e-10
2.24146e-07
0
4.82988e-07
0
0
0
0
1.96647e-07
0.000178227
0
0.000307624
2.78843e-10
0.000286557
0.000304128
0.000332028
2.34444e-06
2.02334e-06
2.12994e-06
0
2.30956e-05
0
0
0
2.00782e-06
0
0
0
0.000284426
0
0
0
0
0
0
4.4277e-06
0
0
0.000140594
0
0.000182202
4.84823e-07
5.89429e-10
4.89515e-10
7.84556e-05
5.37903e-05
3.17464e-09
4.54929e-05
2.38687e-06
1.22145e-06
5.77766e-05
0
0
0
3.21636e-10
1.03751e-06
1.16415e-06
0
0
1.14574e-10
0
0
3.64698e-10
0
1.09369e-07
4.34501e-08
0
0
0
2.57542e-05
0
0
0
0
0
0
0.000167292
0
0.000168294
0
4.62025e-09
5.12201e-09
7.19062e-09
9.8565e-06
9.87025e-06
1.203e-05
2.75315e-08
0
1.87012e-09
1.41178e-06
5.21659e-06
1.65033e-06
0
0.000174461
2.01878e-06
2.21982e-06
0
3.81278e-09
2.21735e-06
2.95144e-06
6.06104e-09
0
2.1535e-05
1.81429e-06
1.42107e-06
1.23212e-05
1.59088e-07
0
8.38194e-08
0
6.38621e-08
9.01088e-08
2.39891e-05
2.71173e-05
5.17096e-05
5.98437e-05
6.40229e-05
2.79731e-07
1.59453e-07
4.40186e-05
4.8638e-05
0
0
4.50709e-05
5.72265e-05
6.64532e-08
7.68854e-08
6.12986e-08
2.5843e-05
2.89703e-05
5.36697e-07
3.49157e-05
2.48614e-08
2.98594e-08
4.08902e-08
1.45826e-05
1.64554e-05
2.0069e-05
0
0
1.71045e-09
9.20898e-06
8.41117e-06
1.12454e-05
6.22761e-06
9.36064e-06
1.24269e-05
1.25098e-05
0
1.03816e-08
0
1.50938e-08
1.78892e-08
0
7.12119e-06
8.33968e-06
1.03376e-05
0
0
0
0
1.96026e-07
1.43398e-07
0
8.80538e-06
0
0
0
3.39008e-09
0
0.000152689
1.14563e-05
9.65931e-10
1.51087e-10
1.76899e-10
1.28152e-10
1.84398e-10
1.59003e-10
1.32585e-10
7.34336e-10
0
1.39944e-09
1.79861e-09
2.4921e-08
4.00939e-08
0
0
0
3.18963e-05
0
1.30209e-08
1.69189e-08
1.67461e-05
2.46832e-10
2.45658e-10
0
0
0
1.28622e-05
0
0
1.13823e-06
0
1.80346e-06
0
0
1.59613e-06
0
1.40234e-08
0
3.46039e-07
3.01842e-08
0
0
1.94205e-08
0
0
4.39153e-07
0
0
4.9687e-08
0
1.41947e-06
1.77809e-06
0
1.80354e-06
1.18275e-05
0
0
0.000288759
4.29027e-06
3.46325e-07
0
7.89892e-07
0
1.03974e-10
7.38477e-07
8.05324e-07
6.42123e-07
0
0
0.000141341
1.06727e-06
8.33927e-07
0
5.25117e-08
6.78009e-08
0
0
6.09204e-05
9.574e-07
0
0
3.06099e-06
0.000145263
9.87813e-10
8.54721e-07
9.74381e-07
2.25622e-09
1.04539e-06
0
1.08944e-07
1.43197e-10
3.74779e-09
1.66887e-06
0
2.00451e-06
0.0002098
0
0
2.89218e-05
0
1.11692e-06
0
0
1.05972e-07
0
0
0
0
0
0
0
3.55211e-07
0
1.13691e-07
0
0
0
0
1.74337e-07
2.87092e-07
0
0
0
1.35322e-08
1.68913e-08
1.23776e-08
3.74309e-05
3.06242e-08
0
0
2.26169e-08
3.50065e-08
0
1.93629e-08
1.4181e-06
0
0
0
2.86782e-06
0
0
3.05502e-08
0
0
1.95142e-08
1.44339e-05
1.90006e-05
0
0
6.25067e-06
0
0
0
0.000208978
0
0
0
0
1.26897e-06
0
1.59962e-06
1.12251e-06
8.40965e-05
0
1.38029e-07
1.61698e-07
2.33959e-07
3.15923e-07
0
1.82547e-07
0
0
1.03893e-07
1.6444e-07
0
7.32757e-08
0
9.13394e-08
4.71834e-05
0
2.62026e-08
0
1.61328e-08
0
0
3.29108e-08
0
2.31341e-09
1.65793e-07
0
0
0
5.18997e-05
6.38057e-05
0
1.46971e-05
0
0
0
1.30902e-08
0
0.000126603
0
1.78433e-05
0
0
5.56971e-08
1.62818e-06
0.000226022
0.000314905
0.000205995
0.000297322
2.22014e-06
0.000186668
0.000173377
0
1.36048e-05
6.89948e-06
0
1.06697e-05
1.08766e-05
0
6.01934e-07
0
0
1.92119e-08
1.41418e-06
3.23212e-10
1.63784e-10
1.11729e-06
0.000124253
1.71474e-09
0
7.25193e-07
0
8.95573e-06
0.000120445
1.4646e-06
0.000151584
2.45149e-06
1.16244e-09
5.09507e-07
0.000153625
0.000112895
2.30428e-07
1.13867e-06
2.68352e-10
3.4077e-10
8.98135e-05
0
5.26173e-08
1.18153e-10
1.95754e-08
0
2.96408e-05
2.10499e-07
0
0
1.86685e-08
1.00774e-05
0
0.000330291
0
0
0
3.72437e-07
0
2.47082e-08
0
2.59281e-08
0.000307112
0
1.55497e-06
4.73587e-08
0
0
0
0
9.00544e-09
0
0
0
0
0.000239949
0
0.000345752
2.14391e-05
4.44134e-05
0
0
3.76269e-06
0.000127086
0
0.000344519
9.80602e-05
0
0
0
0
0
1.55734e-08
2.1308e-06
0.000306257
3.70247e-06
0
0
0
0
3.20804e-06
0.000333757
5.80039e-06
0
3.08171e-06
0.000333785
0
9.47654e-10
2.12213e-05
0
0.000306088
0.000124533
1.90155e-05
0
0
2.22719e-10
2.9669e-06
0
1.81798e-06
0
0.000179502
0
8.04396e-08
1.8715e-06
0
0
0
9.14749e-10
1.74487e-06
2.3667e-10
0
1.77229e-06
1.62982e-06
0
0
1.05812e-06
1.46155e-06
0
0
1.38497e-09
1.36803e-06
0
8.30583e-10
0
0
0
0
0
0
3.64538e-09
3.73535e-07
1.12474e-06
0
3.99815e-08
0
8.42101e-10
1.33117e-06
0
0
7.14953e-05
6.72156e-10
0
5.02339e-08
0
8.38657e-05
3.41569e-10
3.4802e-09
1.64463e-06
0
1.52205e-06
0
1.35556e-05
2.67687e-09
0
0
0.000109396
0
0
0
7.7584e-05
0
1.37335e-05
0
1.77168e-08
3.48191e-08
0
0
0
0
2.56434e-06
0
1.94762e-05
1.24759e-05
0
1.57163e-08
0
1.86659e-08
1.74084e-08
6.58033e-06
6.07061e-09
1.31224e-08
0
2.51556e-05
2.23748e-08
4.55408e-09
8.57344e-06
7.15034e-09
0
3.53287e-08
9.9308e-06
0
1.0727e-08
0
7.85335e-05
1.02532e-05
0
0
9.53981e-06
1.20787e-05
0
0
2.02367e-09
1.23874e-08
0
5.89979e-06
2.77094e-09
1.12978e-08
0
0
0
0
1.03326e-05
0
4.11992e-09
0
6.62256e-05
1.55218e-07
0
8.38907e-09
0
1.59324e-07
1.38675e-05
0.000308326
1.07217e-07
6.83378e-05
0
0
1.21698e-09
1.18001e-10
0
0
0
0
0
6.29517e-06
0
0
2.96556e-06
2.11918e-06
0
7.01757e-06
8.82024e-09
3.74697e-06
4.71078e-06
2.91911e-06
2.85259e-05
5.77527e-07
0.000581375
3.88536e-09
2.11062e-06
0
0.000287351
0
0
6.14696e-07
0
0
3.8304e-06
0
2.42191e-06
0
0
0
0
1.41209e-06
0.000130448
0
1.12139e-06
0.000142017
1.92361e-08
0
0.000167168
5.29001e-09
0
2.81056e-06
1.70098e-05
1.06251e-06
3.66968e-08
4.9548e-06
5.556e-07
0
1.13733e-06
0
0
4.68386e-09
6.01878e-07
0
0.000501596
3.81223e-10
2.4023e-08
8.70985e-10
0
7.25634e-05
4.49067e-08
0
0
3.1916e-10
0
0
0
5.40242e-05
4.1365e-10
2.2739e-08
0
0
1.19707e-08
0
0
6.55111e-05
0
2.5005e-06
0
0
0
1.38063e-08
2.53664e-08
0
0
0
1.37612e-07
1.58728e-07
1.47494e-10
6.13835e-07
1.01131e-06
2.53636e-10
0
0
2.90589e-07
2.07765e-07
0
0
0
3.78198e-07
0
0
0
0
0
0
0
0
2.00957e-08
4.73864e-10
0
1.36378e-10
1.89696e-06
3.15908e-10
2.01399e-10
0.000103972
9.69269e-06
3.38971e-10
0
1.79738e-08
0
1.05732e-05
0
0
1.84524e-06
1.98216e-10
0
6.65973e-06
0
0
2.38776e-07
1.10455e-10
0.00019642
4.41945e-09
0.000301574
1.79137e-05
2.26396e-10
0
0
1.7135e-05
1.8903e-05
6.5599e-09
0
5.72904e-08
0
0
0
0
3.24032e-10
4.22155e-07
4.61232e-07
6.90233e-10
4.28681e-07
0
0
8.97843e-05
1.82023e-05
6.43211e-07
0
7.19139e-06
5.76209e-10
0.000261476
0
3.79499e-07
3.16072e-07
3.13213e-05
7.24819e-06
0
2.7147e-07
0
2.75197e-05
1.24528e-07
0.000161394
2.60529e-06
0
0
0
0
3.77211e-07
1.18495e-08
0
0
0
5.59836e-05
0
5.90358e-05
8.62226e-06
6.89113e-06
7.86686e-06
2.154e-05
0
0
0.000197969
1.88816e-05
0
0
8.94993e-07
1.34376e-06
0
0
2.67596e-05
5.89313e-10
2.48838e-07
0
0.000258138
0
0
0
3.5746e-05
0
2.197e-05
1.81673e-07
1.55805e-10
0.000342721
5.00071e-08
1.88759e-07
0
6.27598e-05
3.81106e-06
2.93609e-06
0.000163206
1.05258e-05
3.96711e-07
1.53408e-07
2.39025e-05
0.000176369
0
0.000183184
0
2.63402e-10
2.50784e-05
2.33462e-05
0
3.46178e-05
0.00024959
1.29459e-10
4.30547e-07
4.19381e-07
1.81047e-10
3.66293e-05
2.38334e-05
1.56636e-09
1.32915e-08
5.2292e-06
0.000347657
0
7.75681e-06
0
0
0
9.35811e-06
0
7.61102e-05
0
9.44822e-07
0
2.55937e-07
3.08848e-06
9.28199e-09
5.61638e-09
2.56518e-06
4.13234e-09
0.000233854
4.04603e-06
0
3.17048e-05
3.04575e-07
6.84942e-05
2.17997e-10
9.79549e-07
1.74058e-06
0
0.000182086
8.13036e-07
0
2.94523e-10
9.97025e-05
0
1.09777e-05
0
0.00016862
6.76865e-05
3.56312e-10
1.19834e-07
0
0
2.41393e-06
3.63283e-06
0.000543737
0
8.03954e-07
7.25938e-06
5.69174e-06
0.000355375
4.18032e-09
6.35538e-05
0
0
3.02788e-07
0
1.52422e-06
0
2.56878e-05
0
2.96872e-10
3.60259e-05
8.61244e-07
0
6.94123e-06
5.5069e-08
0.000118367
0.000138268
0
2.24284e-07
0
1.03345e-06
0
1.27331e-06
3.25924e-10
0
3.20231e-09
8.07074e-09
0
0.000284134
0
3.54451e-10
8.24993e-07
0
0.000201973
0.000304777
1.83511e-06
0
4.9985e-10
0.00031143
0
4.44302e-05
0
0
8.37823e-06
0.000210196
5.40409e-10
1.88435e-06
0
0
0
2.25892e-09
2.70701e-06
0
1.51978e-06
2.23618e-06
2.2595e-10
0
0
0
0
4.03822e-05
0
0.000312354
0
0
0
0
0
0
2.59189e-08
5.05313e-06
0
0
9.36906e-05
0
0
0
0
9.95107e-06
3.14456e-05
1.04167e-10
3.08724e-07
0.000344207
0
0
0
2.06869e-07
0
0
6.79784e-08
7.17575e-05
0
7.01139e-06
0
1.007e-06
1.7841e-05
7.54748e-05
0
5.9455e-07
0.000253173
1.13146e-05
7.04728e-07
1.72521e-10
0.00036814
3.28977e-05
4.68123e-07
1.39834e-08
5.593e-05
0
0
2.78013e-07
6.86193e-10
5.55595e-07
0
2.00917e-09
4.45068e-07
4.45823e-09
1.29969e-06
0
0
9.14484e-08
2.8646e-06
3.56159e-09
1.07756e-09
1.96098e-06
3.55906e-06
0.000455226
6.88904e-06
2.7576e-10
1.98101e-07
9.71458e-05
5.45961e-05
1.13582e-06
0
1.93062e-05
2.06895e-10
8.95093e-07
0
2.6061e-07
0
5.05701e-05
0
1.18651e-06
0
0
3.71248e-06
0
3.06452e-07
4.59533e-05
0
5.75152e-10
0
6.01824e-06
0
0
0
0.000173448
4.5525e-06
5.72229e-06
7.37472e-05
1.04312e-05
0
2.06185e-05
6.05475e-05
0.000405273
6.58871e-06
3.35206e-06
0
5.46154e-10
2.37027e-07
0.000237102
6.25553e-09
2.80033e-06
4.64315e-06
0.000234446
0
0
1.60118e-06
4.34803e-10
2.38748e-10
1.03342e-06
1.48591e-05
0
9.3832e-09
0.000294943
0.000327339
4.18514e-06
4.89954e-06
0
0.000354605
0
6.16783e-06
0
0.000373632
0
0.000178977
0
0.000290301
4.39782e-06
4.22008e-10
0
7.04294e-08
3.8864e-08
1.07131e-10
7.57725e-08
0
6.43682e-05
0
0
0
0.000342734
3.93413e-08
0
3.07766e-06
0
0
0
3.06892e-07
0
0
2.65876e-07
5.21537e-07
0
3.9769e-08
0
0
0
0
0
2.69608e-06
0
5.6675e-06
0
0
0
1.76629e-07
7.8061e-10
0
0
2.45661e-06
0
2.58065e-05
0
6.71125e-07
3.54134e-05
0
5.64491e-07
5.58101e-09
0
0
4.07526e-07
0.000403322
0
2.54856e-06
2.89195e-10
0
1.82663e-08
7.65906e-06
1.8862e-08
8.11233e-06
2.03452e-08
1.91746e-05
1.44459e-08
6.04289e-06
1.5435e-08
0
0
0
2.22524e-05
0
0
1.56801e-05
0
0.000163349
1.50869e-06
5.65118e-05
9.82076e-08
0
0
1.70448e-06
2.27249e-05
0
0
1.24679e-10
2.34805e-05
0.000149216
3.52317e-07
4.70741e-07
2.16263e-07
1.02635e-10
1.14715e-09
0
0
9.16023e-05
0
8.41257e-07
2.22948e-05
0
0
2.23713e-06
3.85736e-05
6.27194e-06
0
0
0
0
4.3534e-09
0
4.55406e-09
4.45545e-10
8.0679e-05
0
1.42243e-05
0
6.46804e-09
0
0
0
0.000310101
5.72591e-06
0
2.35778e-09
0
1.61198e-09
2.04152e-05
0
0
4.40358e-08
3.0697e-08
0
4.38107e-08
0
9.06407e-07
1.76072e-07
7.65972e-07
0
0
4.5688e-07
5.98321e-06
0
0
0
0
0
0
3.73181e-07
2.04802e-05
1.88706e-05
0
9.70877e-06
9.01933e-08
6.60971e-08
2.58294e-05
0
1.7046e-08
0
4.69028e-06
9.05529e-06
0
0
0
0
2.68089e-05
2.37354e-05
1.2584e-08
0
0
2.82039e-08
0
0
1.9504e-05
1.52173e-05
2.81708e-08
0
0
1.62833e-07
7.89834e-09
0.000197905
0.000227855
0.000231479
0
0
0
0
0
0
9.22075e-08
8.79193e-08
1.09236e-05
0.000302172
1.31703e-06
1.72829e-06
0
0
0
2.58651e-10
0
0
0.000228981
0
5.51416e-09
8.83698e-09
0.000258521
1.42762e-10
6.89371e-09
2.34201e-05
0
0
0
1.61118e-05
1.46128e-05
0
0
1.28847e-05
0
1.03193e-05
5.8005e-05
2.02638e-05
1.89248e-05
0
0
5.0482e-07
3.11681e-07
1.51758e-10
3.73398e-07
0
0
1.08016e-05
0
0
0
5.33843e-05
0
5.63832e-05
6.23838e-05
0
0
0
4.64005e-10
0
0
0.000121811
1.61367e-05
2.13787e-07
6.13042e-08
0
0
4.01914e-07
5.95514e-07
0
6.32722e-05
1.06849e-07
0
0
5.26384e-08
2.44358e-07
3.8633e-07
0
0
0
3.43112e-06
0
2.00744e-07
0
2.25304e-07
1.37761e-07
0
0
6.83082e-07
0
4.52367e-08
6.585e-06
4.00155e-07
5.69016e-10
0
0.000136576
0.000154733
3.47099e-07
0.000194838
0.000162964
0
5.68394e-07
3.93097e-07
0.000193726
0.000115557
0
1.08093e-05
0
0
0
0.000102333
0
7.80329e-05
5.24438e-10
8.54132e-06
0
1.35158e-09
0
7.7796e-06
7.45037e-10
0
6.02077e-06
5.67927e-10
1.41628e-05
4.19923e-09
2.19167e-05
7.55075e-09
3.25809e-09
0
1.59088e-05
2.86088e-09
7.84006e-10
1.1264e-05
1.14698e-09
0
6.63997e-06
6.39515e-10
5.40361e-06
0
7.60371e-06
4.80806e-10
1.43911e-08
0.000533353
1.25154e-10
4.34897e-05
0
4.96217e-05
0
0
0.00019198
1.29961e-10
2.14555e-05
1.31568e-10
0.000229768
2.20595e-05
2.26862e-08
1.16376e-08
9.71633e-09
0
1.57067e-09
5.39813e-07
0.000301415
5.31929e-10
1.9081e-06
0.000155559
2.93022e-05
3.79407e-07
0.000238302
3.97198e-09
0
0
0.000205523
0
2.53511e-05
0
9.67281e-05
1.29201e-06
2.01945e-06
0
0
0
0
1.96459e-07
3.63801e-09
6.6738e-07
4.50212e-07
0
0.000309378
2.36069e-06
1.96618e-06
1.7228e-08
8.88828e-05
6.87937e-09
1.94806e-06
0.000282601
5.06896e-06
2.87271e-06
0
1.03273e-06
0
5.57023e-06
0
0
0
0
0
0
0
1.84086e-06
0.000104071
0.00029023
1.4371e-06
7.049e-05
1.34164e-08
0.000227336
0
0
2.67133e-06
0.000133856
1.54012e-08
0
0
2.14366e-08
3.56685e-06
2.84163e-08
0
0
0
6.05815e-05
0
0
0
0.000288966
0
0
0
0
0
0
0
1.68525e-06
1.31339e-10
1.83484e-10
0
5.98406e-05
0
0
2.98444e-07
0
7.15432e-07
1.53956e-10
1.3279e-07
4.51975e-10
6.84221e-07
0
0
0
4.07375e-05
0.000218716
0
1.67114e-06
0
5.15906e-07
4.85635e-10
3.92712e-07
2.58384e-10
0
0.000106666
7.93555e-07
1.77564e-10
0
5.32229e-10
7.7454e-05
9.27135e-05
9.87764e-05
0
6.8781e-10
7.83764e-05
0
2.34226e-10
0.000155929
0
0.00011357
0.00013413
3.75401e-10
0
4.45395e-07
0
0
2.72924e-07
4.59874e-07
3.26465e-07
0
6.12899e-06
0
0
3.16365e-06
0
8.95403e-06
5.84748e-10
0
0
0
7.73769e-09
0
0
0
8.54507e-05
0
5.50457e-10
0
8.52217e-10
6.29058e-10
0
4.4948e-06
0.000602888
2.95134e-06
0.000550935
1.88171e-06
3.63818e-09
0.000334688
1.93812e-06
0
1.50476e-06
0
1.42244e-09
8.92794e-06
0
0
0
1.49682e-08
1.8069e-05
0
8.37188e-06
5.35436e-07
0
8.60741e-05
1.1876e-05
0.000278482
1.15088e-09
2.95473e-07
2.48978e-09
6.64019e-07
5.9173e-10
0.00010317
2.88342e-09
5.38549e-05
0
6.09687e-09
0
0
0
1.49225e-09
2.3831e-05
0
1.62967e-05
0
0
1.33078e-07
0
0
0.000181973
0
1.50376e-05
0
0
0.000228084
0
6.87846e-05
2.4652e-07
0
0.000183323
0
0.00027356
0
0
4.69501e-06
0
2.70435e-06
0
3.49097e-05
3.3504e-06
0
0
0
0
5.87341e-09
2.81148e-06
8.77601e-09
3.45189e-06
0
0
0
0
4.79558e-06
0
0
2.29913e-06
3.83398e-06
0
0
0
0
0
0
4.77136e-08
9.05638e-08
0
0
0
0
0
0
0
7.3862e-07
0
0
0
0.000193873
0
0
1.81706e-10
4.25048e-08
0
0
2.50552e-08
1.67927e-06
2.56635e-10
3.7035e-10
0
3.51926e-06
2.61927e-06
0
0
0
0
8.68026e-05
0.00011565
9.56068e-05
0
0
2.06635e-06
7.23885e-10
2.60462e-06
2.36657e-06
1.46562e-05
0.000360828
0.0001987
0.000248605
0.000230796
0
0
3.19577e-05
0
0
0
0.000117068
0.000152594
1.79412e-10
0.000124126
0
0
0
0
1.72579e-06
1.848e-06
1.13745e-10
1.6191e-10
9.73403e-05
0
0
7.80826e-09
5.55672e-10
6.99337e-10
7.09564e-10
0.000131306
0.000150668
0.000120665
9.27441e-06
0
0
6.16528e-05
0
5.63664e-05
4.76193e-05
0
0
0
0
0
5.71679e-08
2.71473e-08
2.07477e-08
3.29846e-07
4.96693e-07
3.23703e-07
0
0
0
0
0
1.05593e-10
0
1.01211e-10
1.57467e-05
1.4337e-05
2.04997e-05
0.000117582
8.92511e-05
0.000117512
0
0.000139161
4.1944e-10
4.42849e-10
3.55439e-10
2.33783e-07
0
1.38237e-07
0
7.87288e-08
7.17901e-08
0
0
0.000234136
2.61797e-05
3.53768e-05
3.18194e-05
3.463e-05
1.7972e-06
0
8.87239e-08
9.31418e-06
7.16783e-08
0.000132794
4.64293e-07
2.59286e-07
2.62037e-05
1.62691e-07
3.06896e-07
1.67076e-05
0
2.16502e-08
0
7.73258e-05
9.78223e-05
0
0
0
1.36448e-05
9.99864e-06
1.13178e-05
1.71504e-05
2.19052e-05
2.12893e-05
0.000149387
0.000145966
2.94897e-10
0.00013388
0.000113237
0
9.7981e-06
0
9.42503e-06
7.79746e-06
0
4.23139e-06
0
0
0
0
1.67743e-05
3.01964e-05
0
4.08295e-05
2.81071e-09
5.10241e-09
3.50433e-09
1.31741e-05
1.86886e-05
1.518e-05
1.39264e-05
1.02983e-05
0
1.32312e-05
0
1.3678e-05
1.39074e-09
5.9581e-10
5.93897e-10
0
0
0.000241995
0.000220015
0.000188573
0
0
0
0
0
0
2.2712e-06
0
0
1.13657e-05
0
1.70125e-08
0
0
0
7.19034e-07
3.82437e-08
0
4.89487e-08
6.3824e-06
8.0758e-08
0
0
0
0.000132731
0
0
9.90476e-05
0
1.47221e-07
2.23546e-05
4.0263e-05
0
2.24786e-05
0
2.03834e-05
3.69547e-05
0
1.67374e-05
0
0
7.77078e-05
1.2865e-10
4.36535e-07
6.50814e-05
5.9806e-05
1.16853e-10
6.07239e-05
5.20218e-05
0
0
0
6.31564e-05
1.18286e-06
0
0
6.50215e-07
0
0
3.27989e-07
2.09039e-07
1.47402e-07
7.97438e-07
1.29154e-06
9.90455e-07
0
0
0
0
0
1.38355e-10
2.21184e-10
1.905e-10