# vtk DataFile Version 2.0
Unstructured Grid by M++
ASCII
DATASET UNSTRUCTURED_GRID
POINTS 4072 float
  0.609375   0.843750 0
  0.562500   0.843750 0
  0.531250   0.843750 0
  0.875000   0.828125 0
  0.984375   0.828125 0
  0.953125   0.828125 0
  0.937500   0.828125 0
  0.843750   0.828125 0
  0.812500   0.828125 0
  0.781250   0.828125 0
  0.765625   0.828125 0
  0.734375   0.828125 0
  0.703125   0.828125 0
  0.671875   0.828125 0
  0.640625   0.828125 0
  0.609375   0.828125 0
  0.593750   0.828125 0
  0.562500   0.828125 0
  0.546875   0.828125 0
  0.531250   0.828125 0
  0.515625   0.828125 0
  0.968750   0.812500 0
  0.937500   0.812500 0
  0.921875   0.812500 0
  0.890625   0.812500 0
  0.859375   0.812500 0
  0.828125   0.812500 0
  0.796875   0.812500 0
  0.765625   0.812500 0
  0.750000   0.812500 0
  0.718750   0.812500 0
  0.687500   0.812500 0
  0.656250   0.812500 0
  0.625000   0.812500 0
  0.593750   0.812500 0
  0.578125   0.812500 0
  0.546875   0.812500 0
  0.531250   0.812500 0
  0.515625   0.812500 0
  0.984375   0.796875 0
  0.562500   0.015625 0
  0.953125   0.796875 0
  0.921875   0.796875 0
  0.906250   0.796875 0
  0.875000   0.796875 0
  0.843750   0.796875 0
  0.812500   0.796875 0
  0.781250   0.796875 0
  0.750000   0.796875 0
  0.734375   0.796875 0
  0.703125   0.796875 0
  0.671875   0.796875 0
  0.640625   0.796875 0
  0.609375   0.796875 0
  0.578125   0.796875 0
  0.562500   0.796875 0
  0.531250   0.796875 0
  0.515625   0.796875 0
  0.968750   0.781250 0
  0.546875   0.000000 0
  0.937500   0.781250 0
  0.906250   0.781250 0
  0.890625   0.781250 0
  0.859375   0.781250 0
  0.828125   0.781250 0
  0.796875   0.781250 0
  0.765625   0.781250 0
  0.734375   0.781250 0
  0.718750   0.781250 0
  0.687500   0.781250 0
  0.656250   0.781250 0
  0.625000   0.781250 0
  0.593750   0.781250 0
  0.562500   0.781250 0
  0.546875   0.781250 0
  0.515625   0.781250 0
  0.984375   0.765625 0
  0.953125   0.765625 0
  0.921875   0.765625 0
  0.890625   0.765625 0
  0.875000   0.765625 0
  0.843750   0.765625 0
  0.812500   0.765625 0
  0.781250   0.765625 0
  0.750000   0.765625 0
  0.718750   0.765625 0
  0.703125   0.765625 0
  0.671875   0.765625 0
  0.640625   0.765625 0
  0.609375   0.765625 0
  0.578125   0.765625 0
  0.593750   0.750000 0
  0.562500   0.765625 0
  0.546875   0.765625 0
  0.531250   0.765625 0
  0.562500   0.750000 0
  0.968750   0.750000 0
  0.937500   0.750000 0
  0.906250   0.750000 0
  0.875000   0.750000 0
  0.859375   0.750000 0
  0.828125   0.750000 0
  0.796875   0.750000 0
  0.765625   0.750000 0
  0.734375   0.750000 0
  0.703125   0.750000 0
  0.687500   0.750000 0
  0.671875   0.750000 0
  0.656250   0.750000 0
  0.625000   0.750000 0
  0.546875   0.750000 0
  0.531250   0.750000 0
  0.515625   0.750000 0
  0.562500   0.734375 0
  0.984375   0.734375 0
  0.953125   0.734375 0
  0.921875   0.734375 0
  0.890625   0.734375 0
  0.859375   0.734375 0
  0.843750   0.734375 0
  0.812500   0.734375 0
  0.781250   0.734375 0
  0.750000   0.734375 0
  0.718750   0.734375 0
  0.687500   0.734375 0
  0.671875   0.734375 0
  0.656250   0.734375 0
  0.640625   0.734375 0
  0.546875   0.734375 0
  0.531250   0.734375 0
  0.515625   0.734375 0
  0.562500   0.718750 0
  0.968750   0.718750 0
  0.937500   0.718750 0
  0.906250   0.718750 0
  0.875000   0.718750 0
  0.843750   0.718750 0
  0.796875   0.718750 0
  0.765625   0.718750 0
  0.734375   0.718750 0
  0.703125   0.718750 0
  0.687500   0.718750 0
  0.671875   0.718750 0
  0.656250   0.718750 0
  0.625000   0.718750 0
  0.546875   0.718750 0
  0.531250   0.718750 0
  0.515625   0.718750 0
  0.562500   0.703125 0
  0.953125   0.703125 0
  0.921875   0.703125 0
  0.890625   0.703125 0
  0.859375   0.703125 0
  0.828125   0.703125 0
  0.781250   0.703125 0
  0.750000   0.703125 0
  0.718750   0.703125 0
  0.687500   0.703125 0
  0.656250   0.703125 0
  0.546875   0.703125 0
  0.531250   0.703125 0
  0.515625   0.703125 0
  0.984375   0.687500 0
  0.937500   0.687500 0
  0.921875   0.687500 0
  0.906250   0.687500 0
  0.875000   0.687500 0
  0.843750   0.687500 0
  0.812500   0.687500 0
  0.765625   0.687500 0
  0.734375   0.687500 0
  0.703125   0.687500 0
  0.671875   0.687500 0
  0.640625   0.687500 0
  0.593750   0.687500 0
  0.562500   0.687500 0
  0.546875   0.687500 0
  0.531250   0.687500 0
  0.515625   0.687500 0
  0.968750   0.671875 0
  0.937500   0.671875 0
  0.921875   0.671875 0
  0.906250   0.671875 0
  0.890625   0.671875 0
  0.859375   0.671875 0
  0.828125   0.671875 0
  0.796875   0.671875 0
  0.765625   0.671875 0
  0.750000   0.671875 0
  0.718750   0.671875 0
  0.687500   0.671875 0
  0.656250   0.671875 0
  0.625000   0.671875 0
  0.593750   0.671875 0
  0.578125   0.671875 0
  0.546875   0.671875 0
  0.531250   0.671875 0
  0.515625   0.671875 0
  0.984375   0.656250 0
  0.953125   0.656250 0
  0.937500   0.656250 0
  0.921875   0.656250 0
  0.906250   0.656250 0
  0.875000   0.656250 0
  0.843750   0.656250 0
  0.812500   0.656250 0
  0.781250   0.656250 0
  0.750000   0.656250 0
  0.734375   0.656250 0
  0.703125   0.656250 0
  0.671875   0.656250 0
  0.640625   0.656250 0
  0.609375   0.656250 0
  0.578125   0.656250 0
  0.562500   0.656250 0
  0.531250   0.656250 0
  0.515625   0.656250 0
  0.968750   0.640625 0
  0.937500   0.640625 0
  0.906250   0.640625 0
  0.890625   0.640625 0
  0.859375   0.640625 0
  0.828125   0.640625 0
  0.796875   0.640625 0
  0.765625   0.640625 0
  0.734375   0.640625 0
  0.718750   0.640625 0
  0.687500   0.640625 0
  0.656250   0.640625 0
  0.625000   0.640625 0
  0.593750   0.640625 0
  0.562500   0.640625 0
  0.546875   0.640625 0
  0.515625   0.640625 0
  0.984375   0.625000 0
  0.953125   0.625000 0
  0.921875   0.625000 0
  0.890625   0.625000 0
  0.875000   0.625000 0
  0.843750   0.625000 0
  0.812500   0.625000 0
  0.781250   0.625000 0
  0.750000   0.625000 0
  0.734375   0.625000 0
  0.718750   0.625000 0
  0.703125   0.625000 0
  0.671875   0.625000 0
  0.640625   0.625000 0
  0.609375   0.625000 0
  0.578125   0.625000 0
  0.562500   0.625000 0
  0.546875   0.625000 0
  0.531250   0.625000 0
  0.968750   0.609375 0
  0.937500   0.609375 0
  0.906250   0.609375 0
  0.875000   0.609375 0
  0.859375   0.609375 0
  0.828125   0.609375 0
  0.796875   0.609375 0
  0.765625   0.609375 0
  0.750000   0.609375 0
  0.734375   0.609375 0
  0.718750   0.609375 0
  0.703125   0.609375 0
  0.687500   0.609375 0
  0.656250   0.609375 0
  0.625000   0.609375 0
  0.593750   0.609375 0
  0.562500   0.609375 0
  0.546875   0.609375 0
  0.531250   0.609375 0
  0.515625   0.609375 0
  0.984375   0.593750 0
  0.953125   0.593750 0
  0.921875   0.593750 0
  0.890625   0.593750 0
  0.859375   0.593750 0
  0.843750   0.593750 0
  0.812500   0.593750 0
  0.781250   0.593750 0
  0.750000   0.593750 0
  0.734375   0.593750 0
  0.718750   0.593750 0
  0.687500   0.593750 0
  0.671875   0.593750 0
  0.640625   0.593750 0
  0.609375   0.593750 0
  0.578125   0.593750 0
  0.562500   0.593750 0
  0.546875   0.593750 0
  0.531250   0.593750 0
  0.515625   0.593750 0
  0.968750   0.578125 0
  0.937500   0.578125 0
  0.906250   0.578125 0
  0.875000   0.578125 0
  0.890625   0.562500 0
  0.843750   0.578125 0
  0.828125   0.578125 0
  0.796875   0.578125 0
  0.765625   0.578125 0
  0.734375   0.578125 0
  0.703125   0.578125 0
  0.671875   0.578125 0
  0.656250   0.578125 0
  0.656250   0.562500 0
  0.625000   0.578125 0
  0.640625   0.562500 0
  0.593750   0.578125 0
  0.562500   0.578125 0
  0.546875   0.578125 0
  0.531250   0.578125 0
  0.515625   0.578125 0
  0.859375   0.562500 0
  0.828125   0.562500 0
  0.781250   0.562500 0
  0.750000   0.562500 0
  0.718750   0.562500 0
  0.687500   0.562500 0
  0.609375   0.562500 0
  0.578125   0.562500 0
  0.562500   0.562500 0
  0.546875   0.562500 0
  0.531250   0.562500 0
  0.515625   0.562500 0
  1.000000   0.812500 0
  0.578125   0.031250 0
  0.875000   0.546875 0
  0.625000   0.546875 0
  0.218750   0.000000 0
  0.640625   0.781250 0
  0.828125   0.093750 0
  0.031250   0.531250 0
  0.296875   0.328125 0
  0.296875   0.312500 0
  0.281250   0.312500 0
  0.765625   0.312500 0
  0.031250   0.859375 0
  0.093750   0.265625 0
  0.109375   0.250000 0
  0.187500   0.671875 0
  0.421875   0.640625 0
  0.031250   0.062500 0
  0.140625   0.125000 0
  0.562500   0.906250 0
  0.125000   0.437500 0
  0.203125   0.937500 0
  0.125000   0.421875 0
  0.140625   0.406250 0
  0.093750   0.437500 0
  0.109375   0.421875 0
  0.093750   0.421875 0
  0.109375   0.406250 0
  0.328125   0.125000 0
  0.750000   0.906250 0
  0.328125   0.109375 0
  0.750000   0.890625 0
  0.312500   0.125000 0
  0.734375   0.906250 0
  0.281250   0.343750 0
  0.265625   0.359375 0
  0.500000   0.796875 0
  0.078125   0.015625 0
  0.062500   0.015625 0
  0.484375   0.796875 0
  0.484375   0.781250 0
  0.062500   0.000000 0
  0.015625   0.250000 0
  0.062500   0.046875 0
  0.484375   0.828125 0
  0.484375   0.812500 0
  0.062500   0.031250 0
  0.281250   0.671875 0
  0.062500   0.234375 0
  0.328125   0.765625 0
  0.312500   0.750000 0
  0.015625   0.671875 0
  0.781250   0.187500 0
  0.015625   0.265625 0
  0.453125   0.250000 0
  0.453125   0.234375 0
  0.031250   0.265625 0
  0.046875   0.250000 0
  0.093750   0.015625 0
  0.265625   0.656250 0
  0.734375   0.281250 0
  0.156250   0.015625 0
  0.062500   0.265625 0
  0.046875   0.281250 0
  0.031250   0.281250 0
  0.343750   0.781250 0
  0.328125   0.781250 0
  0.265625   0.687500 0
  0.265625   0.703125 0
  0.156250   0.109375 0
  0.578125   0.890625 0
  0.484375   0.984375 0
  0.062500   0.203125 0
  0.328125   0.718750 0
  0.343750   0.734375 0
  0.343750   0.750000 0
  0.453125   0.500000 0
  0.437500   0.500000 0
  0.234375   0.093750 0
  0.171875   0.375000 0
  0.437500   0.531250 0
  0.468750   0.546875 0
  0.453125   0.546875 0
  0.187500   0.015625 0
  0.187500   0.000000 0
  0.609375   0.781250 0
[...]
CELL_DATA 7648
SCALARS scalar_value float 1
LOOKUP_TABLE default
2.76348e-05
3.0449e-05
3.65655e-05
2.68463e-05
0.0223348
0.0243771
0.0266068
0.0248147
2.89321e-05
3.49319e-05
3.77107e-05
0.00987732
0.0114713
0.008644
4.47296e-06
3.7874e-06
4.03789e-06
2.92723e-06
7.13632e-09
6.95088e-09
8.70602e-09
5.87339e-09
5.43984e-09
5.73524e-10
6.33883e-10
9.27879e-10
4.99754e-10
0.000139164
0.000154259
1.54114e-10
1.96314e-10
2.63261e-10
1.59445e-10
4.41835e-10
5.62776e-10
7.32745e-10
4.86246e-10
1.80121e-10
2.43489e-10
3.23835e-10
0
0
7.54582e-05
0.000112501
0.000120346
0.00169833
0.0020474
0.00243432
8.15925e-10
0.00246653
0.0112562
1.13188e-08
1.02199e-09
1.40289e-09
0.000106871
8.43936e-10
0.000148041
8.4455e-05
2.11273e-10
3.11014e-10
4.56321e-10
3.07439e-09
2.71929e-09
0.000219614
0.000174307
0
0
7.30083e-10
1.30732e-06
0
3.76616e-07
0
4.58506e-06
9.33434e-06
0.000189132
0
8.01308e-05
0
0.000199634
1.94783e-05
2.75649e-05
0
0
0
0.00460446
6.29809e-10
2.30796e-07
2.0772e-07
0.000439555
0
0
0
1.24673e-08
1.80153e-08
0
4.27407e-10
0.000228428
6.58884e-10
0.000282471
0.000366601
1.37572e-05
3.44233e-09
1.58128e-05
3.07403e-05
7.63577e-09
4.12132e-07
3.68477e-06
0.00414617
0.00440415
0
3.119e-10
8.47704e-06
8.5619e-06
0
2.11752e-08
0
2.85435e-08
1.46286e-08
5.74122e-10
0.0206212
0.0225537
0
0
5.20551e-08
0
0
0
0.000627625
0.000813723
0.000525183
0
0.000462516
0
0.00421557
8.10628e-07
0.00441582
9.51263e-05
1.79207e-09
3.81177e-10
0.00156162
0.000249834
0.00182409
0.00200883
1.64355e-10
0.00201412
0.00191329
0.0247492
1.29674e-08
0.0125393
0.000258619
0.000253028
1.19994e-09
1.59412e-09
2.05287e-09
0.0079868
0.0062747
0.0098982
2.46074e-10
0.00300499
1.32222e-09
0
7.53615e-09
8.86216e-09
3.08052e-06
0.00171501
0.00217802
1.94989e-10
0.00149954
2.5877e-09
0.0410037
0
0.00136222
0.00276702
0.00297519
6.98386e-06
5.40261e-08
0.0224467
0.000761762
9.62717e-07
0.000909896
0.00117124
1.40134e-06
0.00545899
0.00011529
0
1.82766e-08
0.0108362
0
0
0.000198166
0
0.000249533
0.00060588
0
0
0.000713992
0.000841942
0.000737758
0
0
0
0.00606334
2.1993e-08
0.0129542
0.0124894
2.16161e-08
1.73194e-09
0.00520465
0.00642078
0.00488291
1.11169e-10
1.75874e-10
2.61767e-10
1.58271e-10
0.0009079
3.43405e-08
0
0.0523977
0
6.09774e-05
0.000134638
0.00112089
0.00139607
0
0.00111915
0
1.83583e-05
5.29877e-05
0.000927923
0.000759361
0.0190728
0.0156646
0.000444186
3.87377e-07
0.0193832
0.0211696
0.0223124
0.0219992
0.000317349
0
0.000270755
0.00655483
3.07746e-07
0.000281517
0.000332455
0.000820746
1.28462e-06
0.000728199
0.000900995
0
0.000715145
0.000119028
1.7203e-09
2.36346e-09
2.33095e-09
8.33775e-05
1.52001e-07
0.000564682
0.000714838
5.60186e-09
7.12188e-09
7.19475e-09
0.000769207
1.57173e-10
0
0.000692244
1.80799e-10
0.00173968
1.31989e-10
0.000443527
0.0043132
7.27592e-09
0
0.018484
0.00509586
0
0.0444894
0.000512522
1.86992e-07
2.32857e-07
0
4.98781e-05
0.000323278
0.00905909
4.81678e-07
0.00124287
0.00957883
0
0
0.00056582
0
0.00618892
3.51018e-05
0
2.61043e-07
2.65068e-07
0
3.30828e-07
0
0.000155911
1.82116e-08
7.14382e-07
0.0156981
0.000290413
3.78211e-09
3.06705e-09
2.78026e-09
2.67629e-08
0.00049556
7.80306e-08
5.45589e-08
0.000641637
0.00723959
0
0.00102919
1.23893e-05
2.8293e-08
0.000902233
2.16658e-08
6.89001e-06
1.49611e-08
2.54315e-09
3.63653e-05
0.000202056
0.000441829
1.92959e-07
3.74819e-08
0.000214591
0.000311522
8.53107e-08
0.000315527
1.05295e-09
0.00181289
2.16683e-05
0.0164218
1.96229e-05
0.016457
0.0124906
0.0111078
1.02609e-08
9.77095e-05
0.0163064
0.0153812
0
0.0166448
8.98742e-06
1.30763e-05
0.0126657
0
0
0
0
7.36014e-09
0.000829476
0
0.000643079
0
0.0228853
0.0206066
0.0208513
2.55261e-07
1.98252e-07
2.06509e-07
1.51153e-06
0.000327452
0.000852253
0.000412949
0
0
0
0.000301661
1.15638e-06
0
0.000379144
0
0.000645163
0.00351604
0
1.9307e-05
2.99259e-09
1.89184e-07
0.000847845
4.4085e-07
2.45566e-05
0.00113055
3.1248e-06
0.0011986
6.83595e-07
0
0.00456316
0.00431907
2.7391e-06
0.00655902
0.00649483
0.00503135
1.24841e-09
1.07774e-09
0.0139138
0.00117262
3.64224e-06
3.10414e-10
0.00477808
0.000319056
1.18127e-05
0.000434234
2.17169e-06
0
0.000166616
0.00712639
9.34333e-10
0.0079745
0.000323916
0.000197104
0.0035414
7.98517e-07
5.42011e-05
0
5.41298e-05
0
7.82554e-07
0.000127637
1.31342e-06
0.00693599
2.88478e-09
5.87937e-09
5.21098e-09
0.0249164
5.33241e-09
0.000390635
2.85303e-10
0.000237176
2.66381e-08
2.16777e-10
0
2.40582e-10
1.38645e-10
0
0
0.0102796
0.000143227
5.98801e-08
9.74422e-05
4.56468e-09
4.25646e-09
0.000651071
5.72284e-09
0.000667795
0.000568851
0.000111793
0.000181434
0.0171577
3.38351e-08
2.01488e-10
2.31413e-08
0.000134513
3.02736e-10
3.90607e-10
3.33001e-10
0.000139056
0.00100401
0.00803596
1.6942e-08
5.66288e-05
5.48737e-05
0
1.53135e-10
1.26129e-10
0
0
0
0.000653318
0
2.4643e-07
0
0
2.39685e-07
3.98053e-09
2.73028e-05
0
0.000158353
0
1.28309e-07
0
0
0.000283431
0.000377573
0.000495381
0.000344792
4.33564e-08
7.13915e-08
0
3.32688e-08
0
1.88812e-07
0.000145816
0
2.71023e-08
0.0187782
1.53383e-05
2.12219e-10
1.58329e-10
0.00057546
3.4413e-06
2.82443e-10
2.09816e-10
0.00278762
5.14445e-10
3.99681e-10
3.83784e-10
2.96739e-10
0.0162482
0.000173088
4.0439e-10
0
0.000235674
0
0.000548629
3.78859e-10
0
0.000678139
3.01641e-10
0.00217303
2.35751e-10
3.94533e-10
0.000379151
1.54887e-06
0.0402119
0.00122286
1.5683e-06
1.1055e-06
0.000954298
0
0.0135442
0
6.23447e-06
0.0119167
1.13654e-05
0.00941567
4.88953e-06
1.73032e-05
7.19819e-06
2.17773e-05
1.96357e-10
2.13172e-10
0.00817096
8.9553e-07
0.00239522
1.14055e-06
0.000340005
1.46491e-06
1.05573e-06
0.0331107
1.69059e-06
1.42253e-06
1.02676e-05
1.10755e-05
1.47686e-05
0.00258461
6.45214e-10
3.2072e-10
0.0024166
0
0
0
4.02152e-05
1.04352e-06
8.92761e-09
4.55681e-05
3.83939e-05
6.60192e-05
3.73273e-09
0.000489194
1.21412e-06
0.000959388
0
5.63583e-07
0.00606599
0
0.00196183
9.88815e-09
6.42569e-06
6.16605e-06
0
0
0.000515324
0
1.14169e-05
0.00145545
0
0.00328542
0.00403883
0
2.55467e-10
2.09882e-10
0.0244542
4.20076e-10
1.58997e-06
0.000316036
1.23248e-10
0.000568246
1.82744e-10
1.17431e-10
0
0
0.000302536
0.00566177
0
0.015431
1.01447e-06
0.0321552
0.0327272
0.0345376
0.000813503
0.000710674
0.000761419
5.55157e-09
0.00362668
4.6242e-09
2.74421e-10
0
0.000736166
1.32191e-10
1.70025e-10
1.38778e-10
0.00919499
1.76623e-10
1.18185e-10
0
0
0
1.04378e-10
0.000684459
0
0
0.0271249
1.62608e-07
0.0312147
0.000412712
1.91452e-06
1.6329e-06
0.00842575
0.00601236
6.85885e-06
0.0145664
0.000749027
0.00104236
0.00618083
0
0
0
3.3695e-07
0.000752358
0.000867995
0
0
4.41295e-07
0
3.43072e-07
1.24997e-06
2.31763e-07
7.64671e-05
8.74284e-05
1.74426e-07
1.96308e-10
3.17774e-09
0.00761201
2.01305e-10
3.55359e-09
0
0
0
8.63164e-10
0.0212216
2.53124e-10
0.0198785
2.97849e-08
1.17025e-05
1.27606e-05
1.72349e-05
0.00329806
0.00346179
0.00372715
5.00725e-05
0
4.49963e-06
0.00131105
0.00329301
0.00132273
0
0.00397976
0.00156484
0.00174205
1.09806e-10
7.7209e-06
0.00166508
0.00216206
1.21012e-05
3.48778e-09
0.00427615
0.000737449
0.000587265
0.00116173
0.000175005
2.07163e-07
0.000104761
9.03252e-08
7.66643e-05
0.00010026
0.00776988
0.00878052
0.0156821
0.0173132
0.0182382
0.000257619
0.000161074
0.0127675
0.0140312
2.53224e-08
1.60469e-07
0.0134606
0.0156887
8.64314e-05
9.57234e-05
7.87357e-05
0.00898888
0.00999775
0.000596154
0.0113941
4.00869e-05
4.74984e-05
6.03852e-05
0.0060938
0.00684362
0.00789183
1.74079e-09
1.06411e-09
4.93462e-06
0.00457525
0.00433196
0.00531451
0.000766608
0.00482109
0.00605039
0.00589277
5.48445e-10
1.89568e-05
2.0594e-07
2.5776e-05
3.97903e-05
3.71875e-09
0.00329208
0.00385862
0.00455699
0
0
0
0
5.3975e-05
3.85356e-05
0
0.00115212
8.26623e-08
0
0
1.47071e-06
0
0.00460255
0.00594181
1.35247e-06
4.83607e-07
5.39613e-07
4.10929e-07
6.89977e-07
5.99523e-07
5.075e-07
1.03651e-06
2.25046e-10
1.54869e-06
1.5838e-06
4.60303e-05
6.42684e-05
1.34177e-07
2.45342e-07
0
0.00191191
0
2.83635e-05
3.60018e-05
0.00238822
5.33583e-07
4.85205e-07
0
3.77464e-08
3.94789e-09
0.00121268
8.35116e-08
1.91226e-09
0.000259746
0
0.000409745
0
0
0.000335969
1.66054e-08
2.99464e-05
0
0.0004348
5.21571e-05
6.00154e-08
2.33961e-08
3.69472e-05
0
3.1936e-07
0.000132958
2.82059e-07
3.16754e-07
6.05838e-05
3.27363e-07
0.00105764
0.00119676
0
0.000280062
0.001071
0
0
0.0304822
0.00112952
0.000355742
0
0.000403716
0
2.01157e-07
0.000666173
0.000706285
0.000565122
2.83801e-07
2.54158e-07
0.00960988
0.000310294
0.000247398
7.42973e-10
0.000102451
0.000127511
0
2.94124e-08
0.0155559
0.000251418
3.60867e-10
3.65263e-09
0.00230939
0.00382993
2.72506e-06
0.000905788
0.00101403
5.80203e-06
0.00103949
0
0.000125103
5.46653e-07
7.85046e-06
0.00139849
9.62651e-10
0.00162558
0.00611328
1.39291e-10
0
0.00338587
1.49965e-09
0.000982034
6.3915e-09
1.57079e-08
8.00685e-05
1.43615e-08
0
0
0
1.3781e-08
7.0414e-09
0
0.00031971
0
0.00012371
4.70711e-09
5.54716e-09
0
3.21118e-08
0.000127634
0.000201141
7.11313e-08
0
0
3.07827e-05
3.7753e-05
2.84617e-05
0.00861385
4.20016e-05
0
0
3.54382e-05
4.9448e-05
2.21197e-07
2.94665e-05
0.000276496
0
0
1.97935e-09
0.000462966
2.19164e-09
1.31679e-09
4.98742e-05
3.06959e-08
1.25878e-08
3.43437e-05
0.00451796
0.0058254
0
1.38244e-09
0.00392111
1.77101e-09
1.70499e-09
2.80075e-09
0.0238988
7.26783e-08
1.67016e-09
7.2924e-10
9.85648e-08
0.000462109
2.4627e-09
0.000558804
0.000386867
0.0133932
0
0.00010968
0.00013207
0.000176513
0.00028035
2.19032e-07
0.000176621
1.099e-07
5.12558e-08
0.000110162
9.69732e-05
4.52545e-09
6.87612e-05
1.99054e-08
7.91338e-05
0.00950997
0
8.74037e-06
0
5.67451e-06
9.66763e-10
1.8515e-09
1.29372e-05
5.25783e-08
4.84364e-06
0.000186479
0
0
2.56522e-10
0.00994587
0.0121108
0
0.00121013
0
0
0
2.59414e-05
9.49351e-09
0.00341815
0
0.00531286
5.71082e-09
0
7.00367e-05
0.000477903
0.0341986
0.0191718
0.0325598
0.0389278
0.00134163
0.0315543
0.00577211
2.33576e-08
0.00668669
0.00159904
9.68446e-09
0.0056978
0.00569716
3.85974e-10
0.000127452
1.58449e-08
0
3.8136e-05
0.000755882
8.06756e-07
4.19596e-07
0.000584086
0.0263043
3.34129e-06
0
0.000427385
1.77049e-08
0.00500305
0.0249154
0.000985023
0.028553
0.00153636
2.44343e-06
9.87236e-05
0.0282403
0.00459246
5.8084e-05
0.000798977
7.42954e-07
1.13677e-06
0.00388254
5.95565e-09
0.000103992
4.39224e-07
3.57595e-05
1.71499e-08
0.0104813
9.09436e-05
1.02111e-07
4.17048e-08
3.85628e-05
0.00173648
0
0.0263426
0
0
0
7.91227e-05
0
5.3302e-05
2.05586e-07
3.43183e-05
0.0290714
1.1915e-07
0.000626739
6.68604e-05
3.76773e-08
1.15217e-10
0
2.68407e-10
1.56385e-05
0
0
0
2.96242e-09
0.0260579
3.21461e-07
0.0412864
0.00518951
0.00977156
5.62548e-08
5.63138e-09
0.00275201
0.00386756
5.95956e-09
0.0305512
0.0149013
7.54858e-08
2.49448e-09
0
2.72565e-09
3.97374e-08
3.47228e-05
0.00178503
0.0270556
0.00272366
1.53421e-09
1.83917e-09
2.28724e-09
1.77513e-09
0.000892216
0.0285747
0.000658443
0
0.000960554
0.0326703
0
2.1362e-06
0.00779816
4.37906e-10
0.030957
0.00350549
0.00137931
0
6.36108e-10
8.19199e-07
0.000863264
0
0.000717875
0
0.0120351
3.22043e-07
3.15841e-05
0.000728182
0
0
1.02912e-09
2.80682e-06
0.00075811
5.61136e-07
0
0.000680797
0.00113186
3.70354e-10
1.01654e-07
0.00047605
0.00063979
2.41166e-07
0
4.11444e-06
0.000523474
0
1.84889e-06
0
1.20305e-09
1.76839e-09
0
8.79431e-09
0
9.53959e-06
0.000494712
0.000480568
0
8.19594e-05
3.68288e-10
2.66852e-06
0.00039968
3.8405e-08
8.96072e-10
0.0173322
1.1707e-06
1.20408e-10
0.000100122
0
0.00859459
1.20357e-06
8.21017e-06
0.0014957
2.73117e-09
0.000593733
2.58949e-09
0.00252054
5.34955e-06
5.6353e-10
0
0.0100816
0
4.43278e-10
0
0.00745808
0
0.00493665
6.37708e-09
2.5065e-05
4.56358e-05
1.42159e-08
5.1893e-09
0
8.73409e-10
0.00036614
2.95996e-08
0.00742934
0.00467202
1.41345e-07
2.31967e-05
9.29438e-09
3.17767e-05
3.88181e-05
0.00293058
1.06583e-05
2.49359e-05
7.12437e-09
0.00348428
4.87299e-05
7.67937e-06
0.00336644
1.13356e-05
0
7.34793e-05
0.00391657
0
1.67755e-05
3.02399e-10
0.0121432
0.00110043
0
5.91156e-09
0.00359057
0.00430818
5.03244e-09
8.73216e-09
3.58787e-06
1.76839e-05
0
0.00241493
4.85348e-06
2.00895e-05
4.03984e-09
1.93178e-08
0
1.47676e-07
0.00106265
0
7.17844e-06
0
0.0115839
0.00024861
0
1.49707e-05
0
0.000249285
0.00118996
0.0123597
0.000175778
0.003292
0
4.73018e-09
1.34026e-06
4.53827e-07
0
0
0
2.70456e-10
5.39102e-09
0.00351653
0
2.03658e-10
0.00208071
0.00152873
1.2348e-10
0.00393142
1.77045e-05
0.00266483
0.00284148
0.000705357
0.00575791
0.000399588
0.0554286
8.34234e-06
0.00173655
2.914e-10
0.0378811
3.47818e-08
0
0.000670066
1.19908e-07
1.89179e-07
0.00100895
1.55633e-09
0.000685552
6.45153e-08
1.12192e-07
0
7.0448e-10
0.00128587
0.0147668
3.47601e-08
0.000436793
0.00587184
2.28815e-05
0
0.0183754
8.21875e-06
0
0.000911667
0.00130614
0.00103124
7.58237e-05
0.000582432
0.00017826
2.90412e-10
0.00104653
9.56723e-10
4.03131e-10
2.97075e-06
0.000112537
0
0.0514742
5.81844e-07
2.65639e-05
2.54949e-06
0
0.00287195
6.87692e-05
0
0
8.341e-07
0
0
0
0.00545224
1.44558e-06
4.42827e-05
0
0
2.53994e-05
0
0
0.00295269
0
0.000588277
0
0
5.16547e-09
2.21782e-05
3.82226e-05
1.16731e-08
0
0
0.000215319
0.000234002
4.66492e-07
0.000514882
0.000806846
7.31294e-07
0
0
9.24627e-05
4.65079e-05
0
0
0
0.000127097
2.98597e-07
2.30953e-08
1.32551e-07
0
0
0
0
0
2.18075e-05
2.97483e-07
0
2.89878e-07
0.000757155
6.87431e-07
5.61699e-07
0.0129704
0.00412283
6.13333e-07
0
8.12294e-06
0
0.00433553
0
1.39988e-07
0.000693854
3.41503e-07
3.26961e-10
0.00261125
1.25094e-09
0
0.000257752
3.78676e-07
0.0168784
1.11562e-05
0.0174778
0.00431066
6.41781e-07
4.48376e-09
1.19821e-08
0.00583794
0.00616683
1.11845e-05
2.33009e-09
6.64275e-05
2.31946e-08
0
0
5.30724e-10
1.0676e-06
0.000519448
0.000568997
2.09834e-06
0.000168566
7.27423e-09
0
0.0206392
0.00381833
0.00049158
0
0.00309122
1.34205e-06
0.0370833
2.39065e-10
0.00045629
9.75999e-05
0.0114111
0.000806894
0
0.000209412
8.3866e-09
0.0105388
0.000204339
0.00737916
0.000441636
2.58464e-10
1.23085e-10
0
6.13015e-08
0.00020259
3.99785e-06
1.63251e-07
1.1182e-10
0
0.00246036
1.25137e-09
0.00535513
0.00491298
0.00422747
0.00438146
0.00896175
1.21062e-07
0
0.0320174
0.00816007
0
1.78293e-08
0.000313159
0.000476787
4.08271e-08
0
0.0102568
1.70186e-06
0.000353014
2.33326e-10
0.014767
0
0
1.35696e-07
0.0119195
0
0.00903557
0.000265256
5.47367e-07
0.0345579
7.14827e-05
0.000205722
0
0.0174902
0.00268046
0.00227333
0.0042919
0.0053916
0.00045747
4.73112e-05
0.00962405
0.0148259
0
0.0292863
1.67328e-10
7.43299e-07
0.00989882
0.00721772
6.78922e-09
0.0122046
0.0351159
4.48798e-07
0.000500159
0.000504024
6.23911e-07
0.0126413
0.00343041
4.43878e-06
3.03788e-05
0.00261605
0.0424479
0
0.00346199
5.17802e-10
1.10977e-07
0
0.000996529
9.55747e-08
0.00674666
6.94183e-10
0.000893964
0
0.000173183
0.00238659
2.01664e-05
1.21572e-05
0.00205824
1.05441e-05
0.00771048
0.000946981
0
0.0114703
0.000389384
0.00295823
7.49498e-07
0.000433963
0.000738416
0
0.0301499
0.00035264
3.04094e-08
1.02125e-06
0.00489192
0
0.00108846
1.11363e-08
0.00393579
0.00846472
9.31975e-07
4.10871e-05
1.01529e-08
3.22123e-08
0.000801441
0.00106379
0.0536586
2.31453e-10
0.000828637
0.00131734
0.0027519
0.0427686
8.6039e-06
0.0182734
1.76188e-08
6.0653e-09
0.000340949
1.79115e-07
0.000487707
5.15422e-08
0.0100886
0
1.07469e-06
0.0124041
0.00083972
0
0.000883389
0.000107329
0.00647262
0.0104563
0
6.75481e-05
1.42471e-07
0.000875158
1.41365e-10
0.000920633
8.81254e-07
1.32338e-09
5.3857e-06
1.22974e-05
2.8906e-09
0.0366112
1.15496e-09
9.43817e-07
0.000769661
0
0.0052081
0.0388142
0.000342891
1.32515e-10
1.22135e-06
0.0394576
2.06376e-09
0.00628876
1.22044e-09
1.44727e-09
0.00169746
0.0133578
1.32118e-06
0.000482196
0
0
4.40573e-08
4.65117e-06
0.000686647
0
0.000401272
0.000589816
1.65987e-07
0
7.26615e-09
9.31433e-08
1.18415e-08
0.00846599
2.91089e-09
0.040104
1.38878e-09
9.07851e-10
0
6.02795e-09
0
0
4.30283e-05
0.00340108
2.38088e-08
0
0.0165073
1.54145e-07
8.52011e-09
1.2258e-07
0
0.002044
0.00881371
3.50304e-07
0.00030712
0.0326151
2.92692e-08
4.84942e-08
0
8.66308e-05
2.61452e-09
1.18285e-09
2.86775e-05
0.00859337
3.03765e-08
0.001084
2.22184e-08
0.000317884
0.00303851
0.0199935
0
0.000185234
0.0361264
0.00204827
0.000602717
5.4093e-07
0.044028
0.0100942
0.00047636
3.17883e-05
0.0120509
5.53682e-08
1.01921e-07
7.46452e-05
2.12938e-06
0.000480203
1.22569e-10
5.52131e-06
0.000564765
1.11953e-05
0.000997935
2.31468e-10
1.18989e-10
3.47786e-05
0.00193044
6.96387e-06
2.35923e-06
0.00136449
0.000817357
0.0488068
0.00371642
9.46137e-07
0.000293472
0.0214319
0.0164589
0.000319235
0
0.00290125
6.16311e-07
0.000696121
0
0.000258866
9.74159e-09
0.015213
4.75545e-08
0.000397766
2.95721e-08
0
0.000468098
3.78707e-09
0.000162351
0.0146418
3.20814e-09
1.12569e-06
1.2596e-08
0.00372231
1.51417e-07
0
1.74541e-09
0.00409348
0.00314614
0.00364843
0.00984077
0.00102232
2.90315e-08
0.00876639
0.00714065
0.0462403
0.00342596
0.00195461
1.96441e-10
1.77039e-06
0.000345401
0.0100011
1.53882e-05
0.00162636
0.00317496
0.0348925
0
1.50488e-10
0.00104168
1.09703e-06
6.55341e-07
0.000698647
0.0024366
4.05328e-09
2.21557e-05
0.0390786
0.041447
0.00234297
0.00275201
4.15536e-10
0.0431151
1.2769e-08
0.0030932
4.75742e-10
0.0443365
0
0.00512227
0
0.0287007
0.000556534
7.7621e-07
4.42561e-08
8.65338e-05
7.99981e-05
4.09088e-07
7.70573e-05
0
0.00727246
2.84163e-07
0
0
0.0283604
4.32811e-05
0
0.00185381
1.09734e-09
0
0
0.000413591
0
0
9.10198e-05
0.000180045
8.35261e-09
5.37799e-05
1.94475e-08
0
1.43591e-07
6.17933e-09
9.70678e-09
0.00036692
2.13413e-09
0.00294087
3.05214e-09
0
0
0.000180714
8.81465e-07
3.1488e-09
8.02129e-10
0.00164594
0
0.00159594
0
0.000768772
0.00187749
7.70368e-10
0.000668174
1.3844e-05
0
0
0.000133064
0.0460341
7.31652e-10
0.000770665
2.60214e-07
0
4.04703e-05
0.00367053
4.17293e-05
0.00402941
4.46402e-05
0.00250858
4.87045e-06
0.0032519
3.4674e-05
0
5.46447e-10
1.52181e-08
0.00906931
1.07265e-07
1.23576e-08
0.00731043
4.03571e-10
0.0167171
0.00130545
0.0166506
2.72007e-05
0
0
0.000627308
0.00150391
0
3.47541e-07
4.34862e-07
0.00590509
0.0132494
0.000127226
0.000229294
0.000295875
3.61433e-07
3.46653e-06
0
0
0.00999153
0
0.000302424
0.00150704
1.1352e-09
0
0.000429143
0.0130207
0.00240388
9.3242e-10
1.52937e-09
1.20383e-09
1.36457e-09
8.60616e-06
8.20122e-10
8.56802e-06
1.12579e-06
0.0210626
0
0.00401126
1.05624e-09
1.22674e-05
1.36142e-09
1.0297e-10
1.59339e-09
0.0403488
0.0037139
1.74473e-09
6.48275e-06
4.00686e-09
4.70425e-06
0.0057374
7.42098e-10
5.49249e-09
6.10313e-05
6.484e-05
2.92072e-07
5.11881e-05
5.15941e-10
0.00093502
5.01363e-05
0.000296062
1.51252e-08
6.83675e-09
0.000174434
0.00375424
1.3084e-08
0
0
4.60854e-09
7.88448e-08
1.1666e-08
0.000187444
0.00546877
0.00484866
0
0.000946412
2.94944e-05
2.40826e-05
0.0099741
0
3.51733e-05
0
0.00062127
0.0037095
4.37781e-09
0
6.63009e-10
0
0.00565638
0.00510987
2.0907e-05
0
0
4.36943e-05
1.59358e-08
1.53374e-08
0.0066662
0.00130965
5.9999e-05
0
2.17241e-09
5.85938e-05
3.11652e-06
0.0312605
0.0186022
0.0339999
0
0
0
0
9.55023e-10
0
2.30403e-05
2.30494e-05
0.00137942
0.0343981
0.000618143
0.000489388
7.33232e-08
0
8.81487e-08
8.63021e-07
1.43274e-08
3.0123e-09
0.00626673
2.24918e-10
1.27919e-05
1.97358e-05
0.00762947
5.22169e-07
1.6073e-05
0.00681466
0
0
4.31335e-10
0.00413592
0.00433652
2.48795e-09
1.58788e-10
0.00369815
0
0.00324441
0.0115806
0.00462474
0.00454066
0
3.63095e-10
0.000601913
0.000124621
5.67161e-07
0.00028943
0
0
0.00112169
1.40942e-07
2.07667e-07
1.49261e-07
0.00726302
0
0.00736228
0.00867624
2.20984e-08
0
0
1.58825e-06
3.89911e-10
0
0.0144801
0.00131894
0.000129309
0.000115758
2.75796e-07
5.84443e-09
0.000171105
0.000257732
1.3221e-08
0.0178994
0.000130769
1.93266e-07
7.75164e-08
7.56849e-05
8.61207e-05
0.000184465
3.14082e-09
5.35744e-09
0
0.000637519
0
6.52222e-05
3.20797e-09
8.52827e-05
4.38363e-05
1.02414e-08
1.90772e-08
0.000190147
0
9.13805e-05
0.000787541
9.09244e-05
1.86759e-06
0
0.00685716
0.00751006
9.90499e-05
0.0218409
0.00846591
1.72285e-10
0.000112263
7.91449e-05
0.0232953
0.00449167
5.68267e-08
0.00565509
4.09708e-08
1.19225e-08
1.92785e-08
0.0171486
1.67189e-08
0.0155015
4.13543e-07
0.00316851
2.20553e-09
9.15944e-07