# vtk DataFile Version 2.0
Unstructured Grid by M++
ASCII
DATASET UNSTRUCTURED_GRID
POINTS 4072 float
  0.609375   0.843750 0
  0.562500   0.843750 0
  0.531250   0.843750 0
  0.875000   0.828125 0
  0.984375   0.828125 0
  0.953125   0.828125 0
  0.937500   0.828125 0
  0.843750   0.828125 0
  0.812500   0.828125 0
  0.781250   0.828125 0
  0.765625   0.828125 0
  0.734375   0.828125 0
  0.703125   0.828125 0
  0.671875   0.828125 0
  0.640625   0.828125 0
  0.609375   0.828125 0
  0.593750   0.828125 0
  0.562500   0.828125 0
  0.546875   0.828125 0
  0.531250   0.828125 0
  0.515625   0.828125 0
  0.968750   0.812500 0
  0.937500   0.812500 0
  0.921875   0.812500 0
  0.890625   0.812500 0
  0.859375   0.812500 0
  0.828125   0.812500 0
  0.796875   0.812500 0
  0.765625   0.812500 0
  0.750000   0.812500 0
  0.718750   0.812500 0
  0.687500   0.812500 0
  0.656250   0.812500 0
  0.625000   0.812500 0
  0.593750   0.812500 0
  0.578125   0.812500 0
  0.546875   0.812500 0
  0.531250   0.812500 0
  0.515625   0.812500 0
  0.984375   0.796875 0
  0.562500   0.015625 0
  0.953125   0.796875 0
  0.921875   0.796875 0
  0.906250   0.796875 0
  0.875000   0.796875 0
  0.843750   0.796875 0
  0.812500   0.796875 0
  0.781250   0.796875 0
  0.750000   0.796875 0
  0.734375   0.796875 0
  0.703125   0.796875 0
  0.671875   0.796875 0
  0.640625   0.796875 0
  0.609375   0.796875 0
  0.578125   0.796875 0
  0.562500   0.796875 0
  0.531250   0.796875 0
  0.515625   0.796875 0
  0.968750   0.781250 0
  0.546875   0.000000 0
  0.937500   0.781250 0
  0.906250   0.781250 0
  0.890625   0.781250 0
  0.859375   0.781250 0
  0.828125   0.781250 0
  0.796875   0.781250 0
  0.765625   0.781250 0
  0.734375   0.781250 0
  0.718750   0.781250 0
  0.687500   0.781250 0
  0.656250   0.781250 0
  0.625000   0.781250 0
  0.593750   0.781250 0
  0.562500   0.781250 0
  0.546875   0.781250 0
  0.515625   0.781250 0
  0.984375   0.765625 0
  0.953125   0.765625 0
  0.921875   0.765625 0
  0.890625   0.765625 0
  0.875000   0.765625 0
  0.843750   0.765625 0
  0.812500   0.765625 0
  0.781250   0.765625 0
  0.750000   0.765625 0
  0.718750   0.765625 0
  0.703125   0.765625 0
  0.671875   0.765625 0
  0.640625   0.765625 0
  0.609375   0.765625 0
  0.578125   0.765625 0
  0.593750   0.750000 0
  0.562500   0.765625 0
  0.546875   0.765625 0
  0.531250   0.765625 0
  0.562500   0.750000 0
  0.968750   0.750000 0
  0.937500   0.750000 0
  0.906250   0.750000 0
  0.875000   0.750000 0
  0.859375   0.750000 0
  0.828125   0.750000 0
  0.796875   0.750000 0
  0.765625   0.750000 0
  0.734375   0.750000 0
  0.703125   0.750000 0
  0.687500   0.750000 0
  0.671875   0.750000 0
  0.656250   0.750000 0
  0.625000   0.750000 0
  0.546875   0.750000 0
  0.531250   0.750000 0
  0.515625   0.750000 0
  0.562500   0.734375 0
  0.984375   0.734375 0
  0.953125   0.734375 0
  0.921875   0.734375 0
  0.890625   0.734375 0
  0.859375   0.734375 0
  0.843750   0.734375 0
  0.812500   0.734375 0
  0.781250   0.734375 0
  0.750000   0.734375 0
  0.718750   0.734375 0
  0.687500   0.734375 0
  0.671875   0.734375 0
  0.656250   0.734375 0
  0.640625   0.734375 0
  0.546875   0.734375 0
  0.531250   0.734375 0
  0.515625   0.734375 0
  0.562500   0.718750 0
  0.968750   0.718750 0
  0.937500   0.718750 0
  0.906250   0.718750 0
  0.875000   0.718750 0
  0.843750   0.718750 0
  0.796875   0.718750 0
  0.765625   0.718750 0
  0.734375   0.718750 0
  0.703125   0.718750 0
  0.687500   0.718750 0
  0.671875   0.718750 0
  0.656250   0.718750 0
  0.625000   0.718750 0
  0.546875   0.718750 0
  0.531250   0.718750 0
  0.515625   0.718750 0
  0.562500   0.703125 0
  0.953125   0.703125 0
  0.921875   0.703125 0
  0.890625   0.703125 0
  0.859375   0.703125 0
  0.828125   0.703125 0
  0.781250   0.703125 0
  0.750000   0.703125 0
  0.718750   0.703125 0
  0.687500   0.703125 0
  0.656250   0.703125 0
  0.546875   0.703125 0
  0.531250   0.703125 0
  0.515625   0.703125 0
  0.984375   0.687500 0
  0.937500   0.687500 0
  0.921875   0.687500 0
  0.906250   0.687500 0
  0.875000   0.687500 0
  0.843750   0.687500 0
  0.812500   0.687500 0
  0.765625   0.687500 0
  0.734375   0.687500 0
  0.703125   0.687500 0
  0.671875   0.687500 0
  0.640625   0.687500 0
  0.593750   0.687500 0
  0.562500   0.687500 0
  0.546875   0.687500 0
  0.531250   0.687500 0
  0.515625   0.687500 0
  0.968750   0.671875 0
  0.937500   0.671875 0
  0.921875   0.671875 0
  0.906250   0.671875 0
  0.890625   0.671875 0
  0.859375   0.671875 0
  0.828125   0.671875 0
  0.796875   0.671875 0
  0.765625   0.671875 0
  0.750000   0.671875 0
  0.718750   0.671875 0
  0.687500   0.671875 0
  0.656250   0.671875 0
  0.625000   0.671875 0
  0.593750   0.671875 0
  0.578125   0.671875 0
  0.546875   0.671875 0
  0.531250   0.671875 0
  0.515625   0.671875 0
  0.984375   0.656250 0
  0.953125   0.656250 0
  0.937500   0.656250 0
  0.921875   0.656250 0
  0.906250   0.656250 0
  0.875000   0.656250 0
  0.843750   0.656250 0
  0.812500   0.656250 0
  0.781250   0.656250 0
  0.750000   0.656250 0
  0.734375   0.656250 0
  0.703125   0.656250 0
  0.671875   0.656250 0
  0.640625   0.656250 0
  0.609375   0.656250 0
  0.578125   0.656250 0
  0.562500   0.656250 0
  0.531250   0.656250 0
  0.515625   0.656250 0
  0.968750   0.640625 0
  0.937500   0.640625 0
  0.906250   0.640625 0
  0.890625   0.640625 0
  0.859375   0.640625 0
  0.828125   0.640625 0
  0.796875   0.640625 0
  0.765625   0.640625 0
  0.734375   0.640625 0
  0.718750   0.640625 0
  0.687500   0.640625 0
  0.656250   0.640625 0
  0.625000   0.640625 0
  0.593750   0.640625 0
  0.562500   0.640625 0
  0.546875   0.640625 0
  0.515625   0.640625 0
  0.984375   0.625000 0
  0.953125   0.625000 0
  0.921875   0.625000 0
  0.890625   0.625000 0
  0.875000   0.625000 0
  0.843750   0.625000 0
  0.812500   0.625000 0
  0.781250   0.625000 0
  0.750000   0.625000 0
  0.734375   0.625000 0
  0.718750   0.625000 0
  0.703125   0.625000 0
  0.671875   0.625000 0
  0.640625   0.625000 0
  0.609375   0.625000 0
  0.578125   0.625000 0
  0.562500   0.625000 0
  0.546875   0.625000 0
  0.531250   0.625000 0
  0.968750   0.609375 0
  0.937500   0.609375 0
  0.906250   0.609375 0
  0.875000   0.609375 0
  0.859375   0.609375 0
  0.828125   0.609375 0
  0.796875   0.609375 0
  0.765625   0.609375 0
  0.750000   0.609375 0
  0.734375   0.609375 0
  0.718750   0.609375 0
  0.703125   0.609375 0
  0.687500   0.609375 0
  0.656250   0.609375 0
  0.625000   0.609375 0
  0.593750   0.609375 0
  0.562500   0.609375 0
  0.546875   0.609375 0
  0.531250   0.609375 0
  0.515625   0.609375 0
  0.984375   0.593750 0
  0.953125   0.593750 0
  0.921875   0.593750 0
  0.890625   0.593750 0
  0.859375   0.593750 0
  0.843750   0.593750 0
  0.812500   0.593750 0
  0.781250   0.593750 0
  0.750000   0.593750 0
  0.734375   0.593750 0
  0.718750   0.593750 0
  0.687500   0.593750 0
  0.671875   0.593750 0
  0.640625   0.593750 0
  0.609375   0.593750 0
  0.578125   0.593750 0
  0.562500   0.593750 0
  0.546875   0.593750 0
  0.531250   0.593750 0
  0.515625   0.593750 0
  0.968750   0.578125 0
  0.937500   0.578125 0
  0.906250   0.578125 0
  0.875000   0.578125 0
  0.890625   0.562500 0
  0.843750   0.578125 0
  0.828125   0.578125 0
  0.796875   0.578125 0
  0.765625   0.578125 0
  0.734375   0.578125 0
  0.703125   0.578125 0
  0.671875   0.578125 0
  0.656250   0.578125 0
  0.656250   0.562500 0
  0.625000   0.578125 0
  0.640625   0.562500 0
  0.593750   0.578125 0
  0.562500   0.578125 0
  0.546875   0.578125 0
  0.531250   0.578125 0
  0.515625   0.578125 0
  0.859375   0.562500 0
  0.828125   0.562500 0
  0.781250   0.562500 0
  0.750000   0.562500 0
  0.718750   0.562500 0
  0.687500   0.562500 0
  0.609375   0.562500 0
  0.578125   0.562500 0
  0.562500   0.562500 0
  0.546875   0.562500 0
  0.531250   0.562500 0
  0.515625   0.562500 0
  1.000000   0.812500 0
  0.578125   0.031250 0
  0.875000   0.546875 0
  0.625000   0.546875 0
  0.218750   0.000000 0
  0.640625   0.781250 0
  0.828125   0.093750 0
  0.031250   0.531250 0
  0.296875   0.328125 0
  0.296875   0.312500 0
  0.281250   0.312500 0
  0.765625   0.312500 0
  0.031250   0.859375 0
  0.093750   0.265625 0
  0.109375   0.250000 0
  0.187500   0.671875 0
  0.421875   0.640625 0
  0.031250   0.062500 0
  0.140625   0.125000 0
  0.562500   0.906250 0
  0.125000   0.437500 0
  0.203125   0.937500 0
  0.125000   0.421875 0
  0.140625   0.406250 0
  0.093750   0.437500 0
  0.109375   0.421875 0
  0.093750   0.421875 0
  0.109375   0.406250 0
  0.328125   0.125000 0
  0.750000   0.906250 0
  0.328125   0.109375 0
  0.750000   0.890625 0
  0.312500   0.125000 0
  0.734375   0.906250 0
  0.281250   0.343750 0
  0.265625   0.359375 0
  0.500000   0.796875 0
  0.078125   0.015625 0
  0.062500   0.015625 0
  0.484375   0.796875 0
  0.484375   0.781250 0
  0.062500   0.000000 0
  0.015625   0.250000 0
  0.062500   0.046875 0
  0.484375   0.828125 0
  0.484375   0.812500 0
  0.062500   0.031250 0
  0.281250   0.671875 0
  0.062500   0.234375 0
  0.328125   0.765625 0
  0.312500   0.750000 0
  0.015625   0.671875 0
  0.781250   0.187500 0
  0.015625   0.265625 0
  0.453125   0.250000 0
  0.453125   0.234375 0
  0.031250   0.265625 0
  0.046875   0.250000 0
  0.093750   0.015625 0
  0.265625   0.656250 0
  0.734375   0.281250 0
  0.156250   0.015625 0
  0.062500   0.265625 0
  0.046875   0.281250 0
  0.031250   0.281250 0
  0.343750   0.781250 0
  0.328125   0.781250 0
  0.265625   0.687500 0
  0.265625   0.703125 0
  0.156250   0.109375 0
  0.578125   0.890625 0
  0.484375   0.984375 0
  0.062500   0.203125 0
  0.328125   0.718750 0
  0.343750   0.734375 0
  0.343750   0.750000 0
  0.453125   0.500000 0
  0.437500   0.500000 0
  0.234375   0.093750 0
  0.171875   0.375000 0
  0.437500   0.531250 0
  0.468750   0.546875 0
  0.453125   0.546875 0
  0.187500   0.015625 0
  0.187500   0.000000 0
  0.609375   0.781250 0
[...]
CELL_DATA 7648
SCALARS scalar_value float 1
LOOKUP_TABLE default
3.58216e-06
3.96347e-06
4.78716e-06
3.48169e-06
0.00820579
0.0091302
0.00992565
0.00944722
3.76584e-06
4.57324e-06
4.94492e-06
0.00366899
0.00442856
0.00327269
5.33129e-07
4.47459e-07
4.77299e-07
3.42095e-07
6.84172e-10
6.69721e-10
8.51825e-10
5.62531e-10
6.58297e-10
0
0
0
0
2.23821e-05
2.513e-05
0
0
0
0
0
0
0
0
0
0
0
0
0
1.40138e-05
2.16898e-05
2.37778e-05
0.000368747
0.000451518
0.000538129
0
0.000521188
0.00291498
1.29874e-09
1.08609e-10
1.51407e-10
2.74166e-05
0
3.88725e-05
2.21023e-05
0
0
0
3.10829e-10
3.05701e-10
6.22057e-05
4.87065e-05
0
0
0
1.66089e-07
0
4.08326e-08
0
6.44133e-07
1.36215e-06
4.86017e-05
0
1.19748e-05
0
5.37404e-05
2.92732e-06
4.23713e-06
0
0
0
0.00113294
0
2.47187e-08
2.2211e-08
0.000139234
0
0
0
1.27186e-09
1.87332e-09
0
0
5.13685e-05
0
6.22963e-05
8.23346e-05
2.05644e-06
3.86834e-10
2.40234e-06
4.80258e-06
8.56958e-10
5.1817e-08
4.62714e-07
0.00102325
0.00116001
0
0
1.97713e-06
2.02249e-06
0
2.16832e-09
0
2.97336e-09
1.47624e-09
0
0.00773599
0.00862448
0
0
6.10195e-09
0
0
0
0.000108891
0.000144185
9.17596e-05
0
9.64908e-05
0
0.00140501
8.92963e-08
0.00153784
1.29371e-05
1.93268e-10
0
0.000346284
6.5724e-05
0.000410394
0.000452244
0
0.000459144
0.000411474
0.00978681
1.5132e-09
0.00339305
7.71494e-05
7.68901e-05
1.15064e-10
1.54082e-10
1.98681e-10
0.00430089
0.0033691
0.00318928
0
0.000621733
1.40459e-10
0
7.06547e-10
8.33982e-10
4.14199e-07
0.000355946
0.000464332
0
0.000314
2.6512e-10
0.0146104
0
0.000238176
0.000661868
0.00150335
1.62287e-06
7.29241e-09
0.00763186
0.000151038
1.18495e-07
0.000180554
0.000238818
1.76694e-07
0.00137091
1.80695e-05
0
2.04355e-09
0.00264685
0
0
3.35121e-05
0
4.39262e-05
0.00016309
0
0
0.000195566
0.000229048
0.000205898
0
0
0
0.00169317
2.4084e-09
0.00327242
0.00317576
2.45169e-09
1.81119e-10
0.00185106
0.00237915
0.00176879
0
0
0
0
0.000151311
3.6589e-09
0
0.0196614
0
1.29043e-05
2.83942e-05
0.000196681
0.000250567
0
0.000199792
0
3.95369e-06
1.15921e-05
0.000169881
0.000138755
0.00562397
0.00453233
8.0343e-05
4.48515e-08
0.00539011
0.00599122
0.00632157
0.00631093
5.8649e-05
0
5.00918e-05
0.00361151
3.31353e-08
8.6689e-05
0.000104007
0.000137956
1.49425e-07
0.000122583
0.000154744
0
0.000122572
3.1938e-05
1.81292e-10
2.5088e-10
2.49324e-10
1.24845e-05
1.7004e-08
0.000172389
0.000225981
5.41304e-10
6.98607e-10
7.14916e-10
0.000169371
0
0
0.000113483
0
0.000345713
0
6.96726e-05
0.000875898
7.758e-10
0
0.0069625
0.00259536
0
0.0158375
0.000141464
1.99266e-08
2.48725e-08
0
6.58519e-06
8.73068e-05
0.00469247
5.2855e-08
0.000337044
0.00501126
0
0
0.000125469
0
0.00236399
8.50161e-06
0
2.93514e-08
2.98416e-08
0
3.73338e-08
0
4.14835e-05
2.11121e-09
7.85094e-08
0.00719418
8.47606e-05
3.60292e-10
2.91619e-10
2.66689e-10
2.88311e-09
0.000129415
8.13011e-09
5.5826e-09
0.000140462
0.00263476
0
0.000342749
1.87568e-06
2.96283e-09
0.000296954
2.24859e-09
9.96841e-07
1.52227e-09
2.40389e-10
4.75093e-06
3.85436e-05
8.97378e-05
2.33135e-08
4.4154e-09
4.2279e-05
6.23063e-05
1.0164e-08
6.8199e-05
0
0.000385597
2.77827e-06
0.00710768
2.50366e-06
0.00724364
0.00406541
0.00363753
1.18735e-09
1.83151e-05
0.0052583
0.00506804
0
0.00640272
1.11243e-06
1.64195e-06
0.00619484
0
0
0
0
6.9022e-10
0.000198245
0
0.00014787
0
0.00889608
0.00804791
0.00827923
3.03991e-08
2.33051e-08
2.40495e-08
1.70087e-07
6.72797e-05
0.000269399
9.11602e-05
0
0
0
5.85596e-05
1.28863e-07
0
5.88991e-05
0
0.000106057
0.00172819
0
4.81376e-06
2.79451e-10
2.11831e-08
0.0001994
6.26422e-08
5.95832e-06
0.000209697
4.07518e-07
0.000224612
7.49866e-08
0
0.00140098
0.00138048
3.17837e-07
0.00193914
0.00201626
0.00139427
1.47542e-10
1.18636e-10
0.00460905
0.000416577
4.27589e-07
0
0.00124356
6.75238e-05
2.84963e-06
9.43221e-05
2.48324e-07
0
2.34904e-05
0.00198683
1.10659e-10
0.00386755
8.44012e-05
5.12966e-05
0.00159564
8.98648e-08
1.42741e-05
0
1.44871e-05
0
8.67488e-08
1.76536e-05
1.47329e-07
0.00288481
2.99347e-10
5.49546e-10
4.87284e-10
0.0100006
4.98489e-10
9.81888e-05
0
4.81875e-05
3.15631e-09
0
0
0
0
0
0
0.00298503
2.47472e-05
6.8637e-09
1.61213e-05
4.71388e-10
3.97876e-10
0.000153567
5.34741e-10
0.000159201
0.00013688
2.04728e-05
3.4934e-05
0.00496213
4.05728e-09
0
2.68949e-09
2.52855e-05
0
0
0
3.39971e-05
0.000323907
0.00227533
1.90667e-09
9.0974e-06
9.74553e-06
0
0
0
0
0
0
0.000120007
0
2.65217e-08
0
0
2.59345e-08
4.53627e-10
4.46772e-06
0
2.70185e-05
0
1.35859e-08
0
0
4.77982e-05
6.43612e-05
8.57708e-05
7.24843e-05
5.22105e-09
8.76632e-09
0
3.3628e-09
0
2.02309e-08
3.71065e-05
0
3.36532e-09
0.00719432
2.37042e-06
0
0
0.000144692
4.51399e-07
0
0
0.000640185
0
0
0
0
0.00566761
3.96549e-05
0
0
5.49213e-05
0
8.96557e-05
0
0
0.000115096
0
0.000484581
0
0
0.000114221
1.95843e-07
0.0138106
0.000262331
1.98351e-07
1.39254e-07
0.00020384
0
0.00591959
0
1.34965e-06
0.00305573
2.56491e-06
0.00236097
1.0664e-06
3.92102e-06
1.5849e-06
5.13781e-06
0
0
0.00241943
1.01767e-07
0.00109146
1.42419e-07
0.000104533
1.85035e-07
1.32205e-07
0.0105926
2.14808e-07
1.78926e-07
1.38585e-06
1.52086e-06
2.02045e-06
0.000514451
0
0
0.000487144
0
0
0
6.84658e-06
1.3411e-07
1.01676e-09
7.65533e-06
6.28563e-06
1.14394e-05
3.88844e-10
0.00015221
1.52425e-07
0.000201555
0
6.1495e-08
0.00132048
0
0.000841762
1.00088e-09
8.54258e-07
8.16425e-07
0
0
0.000162653
0
1.42328e-06
0.000288794
0
0.000652712
0.000825693
0
0
0
0.00698291
0
1.84706e-07
4.81728e-05
0
9.21237e-05
0
0
0
0
4.49311e-05
0.00298798
0
0.00717303
1.12519e-07
0.0117564
0.0121375
0.012975
0.000189434
0.000164694
0.000175499
5.1915e-10
0.00112507
4.32023e-10
0
0
0.000168227
0
0
0
0.00487652
0
0
0
0
0
0
0.000208349
0
0
0.00823769
1.74722e-08
0.00981696
7.38665e-05
2.19606e-07
1.85772e-07
0.00301731
0.00211008
8.95637e-07
0.00368526
0.000180306
0.000188749
0.00220137
0
0
0
5.00174e-08
0.000142634
0.000163665
0
0
4.80593e-08
0
3.73805e-08
1.40908e-07
2.56586e-08
1.39062e-05
1.18791e-05
1.91775e-08
0
3.70623e-10
0.00197878
0
4.10917e-10
0
0
0
0
0.00736187
0
0.00704038
4.00059e-09
1.46318e-06
1.60491e-06
2.19828e-06
0.000805322
0.000836623
0.000932793
6.94939e-06
0
5.67256e-07
0.00023096
0.0006637
0.000244942
0
0.00231521
0.000293342
0.000325398
0
1.03003e-06
0.000315564
0.000413743
1.62375e-06
3.26249e-10
0.00123179
0.000163063
0.000128793
0.000419442
2.86365e-05
2.3371e-08
1.6359e-05
1.01042e-08
1.20669e-05
1.6181e-05
0.00196507
0.00222516
0.00406844
0.00456879
0.00483734
4.46391e-05
2.69276e-05
0.00336978
0.00371227
2.91885e-09
1.87817e-08
0.0035178
0.00422703
1.33033e-05
1.49426e-05
1.21522e-05
0.0022251
0.00248257
9.85324e-05
0.00288557
5.75963e-06
6.85515e-06
8.92101e-06
0.0014148
0.00159244
0.00187239
1.62995e-10
0
5.89857e-07
0.00100105
0.000936245
0.00118329
0.000252611
0.00104234
0.00133304
0.00131372
0
2.61907e-06
2.20014e-08
3.63659e-06
5.21476e-06
4.14529e-10
0.000733973
0.000862333
0.00103659
0
0
0
0
1.3389e-05
9.59961e-06
0
0.000372234
1.05124e-08
0
0
2.95231e-07
0
0.00245789
0.00127786
1.88629e-07
5.57035e-08
6.30232e-08
4.72937e-08
7.58684e-08
6.57541e-08
5.53872e-08
1.44083e-07
0
2.2903e-07
2.50124e-07
6.35769e-06
9.2714e-06
1.48567e-08
2.73083e-08
0
0.000797865
0
3.73371e-06
4.77717e-06
0.000757496
6.78988e-08
6.27156e-08
0
4.05659e-09
4.00889e-10
0.000437558
9.10717e-09
1.79512e-10
6.92801e-05
0
0.000109642
0
0
9.2115e-05
1.78391e-09
3.9648e-06
0
6.88704e-05
7.34796e-06
6.6299e-09
2.54363e-09
5.05555e-06
0
3.61652e-08
3.21581e-05
3.19966e-08
3.61022e-08
9.47321e-06
3.54267e-08
0.000200039
0.000233893
0
8.47687e-05
0.000392332
0
0
0.01135
0.000288721
6.01202e-05
0
8.25932e-05
0
2.59048e-08
0.000118033
0.000126338
0.000100717
3.05201e-08
2.7248e-08
0.00398585
7.64028e-05
6.04382e-05
0
1.40619e-05
1.77205e-05
0
3.45282e-09
0.00429395
6.40084e-05
0
3.78127e-10
0.000432524
0.00212111
3.28971e-07
0.000152376
0.000171561
7.18681e-07
0.000178794
0
2.00766e-05
5.96395e-08
1.03595e-06
0.000255244
0
0.000300198
0.00332868
0
0
0.00115513
1.40602e-10
0.000176012
7.33351e-10
1.79102e-09
1.42753e-05
1.65062e-09
0
0
0
1.45608e-09
8.01216e-10
0
5.60277e-05
0
2.01547e-05
5.24715e-10
6.27089e-10
0
3.71222e-09
2.3141e-05
3.72212e-05
8.30207e-09
0
0
3.99341e-06
4.93592e-06
3.68189e-06
0.00241647
6.33232e-06
0
0
5.13379e-06
7.39658e-06
2.37335e-08
4.30293e-06
7.76578e-05
0
0
1.87025e-10
0.000138704
2.0991e-10
1.25215e-10
7.14335e-06
3.36834e-09
1.36339e-09
4.80539e-06
0.00113623
0.0014866
0
1.38694e-10
0.000790615
1.78136e-10
1.69861e-10
2.61683e-10
0.0086023
1.05653e-08
1.55948e-10
0
1.32335e-08
0.000105487
2.30024e-10
0.000129551
8.99232e-05
0.00426224
0
1.9408e-05
2.32782e-05
3.19496e-05
4.91628e-05
2.51458e-08
2.9934e-05
1.25166e-08
5.78851e-09
1.80464e-05
1.85608e-05
5.23447e-10
1.15596e-05
2.27442e-09
1.36113e-05
0.00278349
0
1.98965e-06
0
1.25901e-06
0
1.72766e-10
2.80705e-06
5.75903e-09
6.38668e-07
3.03823e-05
0
0
0
0.00296024
0.00364017
0
0.000456897
0
0
0
3.50283e-06
1.01655e-09
0.00186757
0
0.00136245
6.65177e-10
0
1.08669e-05
0.000117485
0.0110863
0.00843181
0.0103854
0.0132323
0.000271179
0.00991438
0.00299964
2.55193e-09
0.0014581
0.000428921
1.04511e-09
0.00121085
0.00121159
0
3.46683e-05
1.53326e-09
0
5.15782e-06
0.000155159
1.00009e-07
5.14183e-08
0.000119692
0.00769955
4.48168e-07
0
8.41914e-05
1.91512e-09
0.00104137
0.00739851
0.000191847
0.00872004
0.000308065
3.19931e-07
2.75559e-05
0.00871826
0.00222
1.48334e-05
0.000153069
8.93006e-08
1.29504e-07
0.00183277
5.56808e-10
1.42185e-05
4.83592e-08
4.9496e-06
1.85979e-09
0.00257982
1.93684e-05
1.13299e-08
4.56089e-09
5.15996e-06
0.000513531
0
0.0107019
0
0
0
2.13982e-05
0
7.05513e-06
2.2147e-08
5.22031e-06
0.0111985
1.4965e-08
0.000138658
1.00182e-05
4.1686e-09
0
0
0
2.19177e-06
0
0
0
2.76703e-10
0.00956402
3.5964e-08
0.0148251
0.00140788
0.00279011
6.53974e-09
5.79641e-10
0.000524351
0.00204627
5.56877e-10
0.0120444
0.00482881
1.00317e-08
2.53564e-10
0
2.66723e-10
4.1816e-09
4.54905e-06
0.000323029
0.0106351
0.000518942
1.43138e-10
2.01318e-10
2.53739e-10
1.65688e-10
0.0002237
0.0113701
0.000222904
0
0.000231907
0.0124985
0
2.74301e-07
0.00189316
0
0.0116949
0.00189289
0.000541484
0
0
9.05791e-08
0.000213197
0
0.000160127
0
0.00505347
3.46649e-08
6.92043e-06
0.000163221
0
0
1.10448e-10
3.2858e-07
0.000164412
7.01819e-08
0
0.000153125
0.000218947
0
1.23966e-08
0.000101389
0.000138036
2.98096e-08
0
4.87058e-07
0.000117596
0
2.37574e-07
0
1.17433e-10
1.95233e-10
0
9.29534e-10
0
1.1786e-06
7.713e-05
0.000104008
0
1.1063e-05
0
3.09012e-07
9.74358e-05
5.28877e-09
0
0.00487371
1.55917e-07
0
1.36451e-05
0
0.00312637
1.34705e-07
1.04562e-06
0.000265236
2.7059e-10
0.000132681
2.41741e-10
0.000733751
7.15453e-07
0
0
0.00380886
0
0
0
0.00275999
0
0.00119785
7.0588e-10
3.7344e-06
6.97429e-06
1.57829e-09
6.30639e-10
0
0
0.000114175
3.34307e-09
0.00178059
0.00111848
1.51303e-08
3.4136e-06
1.00734e-09
4.48967e-06
5.08567e-06
0.000659164
1.48639e-06
3.40751e-06
7.62983e-10
0.00112573
6.43075e-06
1.08076e-06
0.0007883
1.62774e-06
0
9.8587e-06
0.000919488
0
2.42417e-06
0
0.00388906
0.000380897
0
6.13659e-10
0.000852424
0.00104398
5.7711e-10
8.62973e-10
4.9349e-07
2.62183e-06
0
0.000553378
6.72865e-07
2.79828e-06
4.35427e-10
1.97518e-09
0
1.65539e-08
0.000373068
0
1.00065e-06
0
0.0035638
3.64209e-05
0
2.08097e-06
0
3.67648e-05
0.000443101
0.00613798
2.54709e-05
0.00149422
0
4.9193e-10
1.98252e-07
4.93372e-08
0
0
0
0
5.8493e-10
0.000738832
0
0
0.000403922
0.000293343
0
0.000825667
2.37657e-06
0.000515228
0.000581167
0.000185191
0.00165919
7.54231e-05
0.0210077
1.09247e-06
0.000319154
0
0.0131166
3.48388e-09
0
0.000111521
1.25442e-08
2.00198e-08
0.000257687
1.521e-10
0.000170779
6.54777e-09
1.15978e-08
0
0
0.000228078
0.00525986
4.34503e-09
9.73725e-05
0.00283551
3.56617e-06
0
0.00664606
1.18287e-06
0
0.000217184
0.000503805
0.000178849
1.02083e-05
0.000194653
4.23241e-05
0
0.000184818
1.12544e-10
0
5.28505e-07
3.18146e-05
0
0.0189618
7.92286e-08
4.2238e-06
3.01282e-07
0
0.00138215
1.00634e-05
0
0
1.02046e-07
0
0
0
0.00197121
1.62396e-07
6.02546e-06
0
0
3.36469e-06
0
0
0.00136542
0
0.000155764
0
0
5.64199e-10
3.1844e-06
5.60304e-06
1.28008e-09
0
0
3.16963e-05
3.50782e-05
5.39117e-08
9.29447e-05
0.000148885
8.68291e-08
0
0
2.19406e-05
1.22912e-05
0
0
0
2.96435e-05
3.37208e-08
2.42043e-09
1.48633e-08
0
0
0
0
0
3.47275e-06
5.14751e-08
0
3.67865e-08
0.000168427
8.75825e-08
6.73422e-08
0.00446108
0.000946954
8.07429e-08
0
1.66797e-06
0
0.00100806
0
1.83835e-08
0.000157179
4.51766e-08
0
0.000606817
1.29795e-10
0
4.27346e-05
4.27526e-08
0.00660469
1.39157e-06
0.00778733
0.00116483
7.65936e-08
4.19018e-10
1.13872e-09
0.00144513
0.0015484
1.5734e-06
2.54857e-10
1.05449e-05
2.5996e-09
0
0
0
1.22043e-07
8.29568e-05
9.08558e-05
2.45994e-07
3.72302e-05
7.53042e-10
0
0.00591585
0.00107784
9.09689e-05
0
0.00070349
1.69921e-07
0.0124327
0
7.33306e-05
2.34058e-05
0.00275402
0.000275381
0
3.78193e-05
7.88438e-10
0.00250393
2.96594e-05
0.00345572
0.000130155
0
0
0
7.33863e-09
4.03554e-05
8.89523e-07
1.83748e-08
0
0
0.00113947
1.17113e-10
0.00199494
0.0010181
0.000856668
0.000906132
0.00206394
1.33292e-08
0
0.0103118
0.00185095
0
2.25355e-09
7.23238e-05
0.000109839
5.32759e-09
0
0.00242736
2.02259e-07
5.37799e-05
0
0.0065684
0
0
1.55859e-08
0.00299448
0
0.00208658
3.99365e-05
6.13483e-08
0.0131167
1.06769e-05
3.38777e-05
0
0.00468344
0.000513365
0.000423274
0.00239122
0.00114886
7.45584e-05
1.12929e-05
0.00224601
0.00582478
0
0.00949835
0
8.88256e-08
0.00232308
0.00184883
6.36821e-10
0.00298483
0.0118906
5.05023e-08
8.13528e-05
8.10767e-05
7.0353e-08
0.00311218
0.00109393
5.33291e-07
3.94152e-06
0.000566908
0.0150642
0
0.000780934
0
1.23841e-08
0
0.000345715
1.11089e-08
0.00255168
0
0.000156273
0
3.22551e-05
0.000447405
2.64927e-06
1.59223e-06
0.000381435
1.31477e-06
0.00404552
0.000251433
0
0.0027724
6.12788e-05
0.00138674
8.45841e-08
9.27324e-05
0.000161182
0
0.0096521
7.56477e-05
3.6876e-09
1.15007e-07
0.00222187
0
0.000386775
1.17735e-09
0.002271
0.00288263
1.13964e-07
9.45122e-06
9.59409e-10
3.46819e-09
0.00018937
0.000262324
0.0200628
0
0.000140686
0.000381208
0.000603109
0.015275
1.14213e-06
0.00482092
1.68077e-09
5.66796e-10
5.59336e-05
1.91586e-08
0.000116434
7.14326e-09
0.00237913
0
1.19427e-07
0.00304775
0.000145272
0
0.000287919
1.47416e-05
0.00284261
0.00420905
0
1.62977e-05
1.60561e-08
0.000158639
0
0.000175351
1.0666e-07
1.47527e-10
7.55473e-07
1.78607e-06
3.2047e-10
0.012799
1.17385e-10
1.14773e-07
0.00013505
0
0.00294194
0.0136135
9.7759e-05
0
1.52566e-07
0.0135097
2.45403e-10
0.00204279
1.2039e-10
1.35077e-10
0.000476028
0.00572516
1.65053e-07
0.00012412
0
0
5.07005e-09
6.16178e-07
0.000177406
0
0.000102161
0.000150377
2.71733e-08
0
8.47158e-10
9.90676e-09
1.19333e-09
0.00243878
2.72024e-10
0.0139858
1.51259e-10
0
0
6.76044e-10
0
0
6.12946e-06
0.000667855
2.58247e-09
0
0.00512833
1.97549e-08
8.95412e-10
1.44138e-08
0
0.000573343
0.00233683
3.97637e-08
5.22929e-05
0.01261
3.12611e-09
5.28471e-09
0
1.86546e-05
3.11328e-10
1.40335e-10
6.12559e-06
0.00296966
2.99467e-09
0.000330401
2.89743e-09
7.61016e-05
0.000914133
0.00545006
0
4.4437e-05
0.0121395
0.000598361
0.00010845
6.26814e-08
0.0156661
0.0026082
8.0962e-05
4.12888e-06
0.00348754
6.76414e-09
1.17522e-08
1.87231e-05
2.47394e-07
8.58304e-05
0
6.70378e-07
8.92995e-05
1.40362e-06
0.000186857
0
0
7.7102e-06
0.000379521
9.38674e-07
3.05557e-07
0.000264502
0.000218287
0.0178938
0.000790177
1.06871e-07
4.40525e-05
0.00623039
0.00426958
7.95193e-05
0
0.000908471
7.24846e-08
0.000129148
0
4.39463e-05
1.10074e-09
0.0039625
5.43275e-09
9.33606e-05
3.87857e-09
0
0.0001525
3.80265e-10
3.23434e-05
0.00370819
3.27405e-10
1.46705e-07
1.34553e-09
0.00074535
1.81995e-08
0
1.99596e-10
0.00235817
0.000610587
0.000725166
0.00328996
0.000364717
3.20036e-09
0.00201259
0.00247111
0.0166698
0.000736616
0.000402218
0
2.03602e-07
5.21923e-05
0.00484939
1.9427e-06
0.000333918
0.000621603
0.0115465
0
0
0.000205038
1.35599e-07
7.89694e-08
0.000134756
0.000738233
3.78616e-10
2.8398e-06
0.0134633
0.01446
0.000489647
0.000575806
0
0.0151725
1.2206e-09
0.000671777
0
0.015847
0
0.00279241
0
0.0108951
0.000181296
1.02054e-07
4.9409e-09
1.35446e-05
1.07763e-05
4.46654e-08
1.27043e-05
0
0.00255345
3.06319e-08
0
0
0.0114096
6.9365e-06
0
0.000377399
1.19703e-10
0
0
6.40874e-05
0
0
2.10552e-05
4.16666e-05
1.02975e-09
8.15241e-06
2.15268e-09
0
1.53343e-08
5.78421e-10
9.15363e-10
0.000116285
2.10823e-10
0.000631461
3.35653e-10
0
0
3.01793e-05
1.2916e-07
3.39018e-10
0
0.000323637
0
0.000658081
0
0.000125791
0.000813438
0
0.000108205
1.74396e-06
0
0
3.13552e-05
0.0165608
0
0.000187845
4.02204e-08
0
5.30319e-06
0.000810677
5.47516e-06
0.000880791
5.87012e-06
0.000819874
1.09014e-06
0.000691127
4.51832e-06
0
0
1.68021e-09
0.00212017
1.39889e-08
1.34874e-09
0.00162981
0
0.00617406
0.000235625
0.004326
6.68196e-06
0
0
0.000143001
0.000607197
0
3.87272e-08
4.88363e-08
0.00159218
0.00509892
2.89308e-05
4.71219e-05
4.54731e-05
4.0454e-08
4.08e-07
0
0
0.00357214
0
6.91715e-05
0.00060404
1.06037e-10
0
0.000121401
0.00322632
0.00056023
1.07617e-10
1.77338e-10
1.38868e-10
1.56145e-10
1.15715e-06
0
1.16943e-06
1.39085e-07
0.00576934
0
0.00103207
1.23444e-10
1.67275e-06
1.59108e-10
0
1.88474e-10
0.0139212
0.000738921
2.05015e-10
7.87579e-07
4.24362e-10
5.60123e-07
0.00149881
0
5.863e-10
9.19064e-06
8.65134e-06
3.16718e-08
8.08771e-06
0
0.000158774
1.22936e-05
6.59878e-05
1.85971e-09
8.30275e-10
3.89413e-05
0.00075769
1.41255e-09
0
0
5.49553e-10
9.56731e-09
1.37384e-09
3.8041e-05
0.00144593
0.00128959
0
0.000338243
6.87399e-06
5.40088e-06
0.00235138
0
4.70511e-06
0
0.000199351
0.000860024
4.94785e-10
0
0
0
0.00160588
0.00143773
2.97182e-06
0
0
6.35498e-06
1.74455e-09
1.47577e-09
0.00165312
0.000485704
7.97924e-06
0
2.02872e-10
1.32874e-05
6.57361e-07
0.0101727
0.00742234
0.0113367
0
0
0
0
0
0
5.82311e-06
5.74303e-06
0.000451792
0.0125403
0.000130626
0.000121783
1.09269e-08
0
1.00087e-08
9.82675e-08
1.36533e-09
2.8127e-10
0.00348833
0
1.64339e-06
2.57257e-06
0.0041582
5.7797e-08
2.06631e-06
0.00177393
0
0
0
0.00109411
0.0011043
2.9011e-10
0
0.000944019
0
0.000804272
0.00342333
0.00127361
0.00122988
0
0
9.72045e-05
2.73233e-05
6.23712e-08
5.2621e-05
0
0
0.000392551
1.54626e-08
2.3085e-08
1.64753e-08
0.00239759
0
0.00246444
0.00285336
2.12633e-09
0
0
1.79673e-07
0
0
0.00507343
0.000497539
2.47014e-05
1.60522e-05
3.05681e-08
6.98194e-10
3.67269e-05
5.51474e-05
1.58823e-09
0.00476367
2.0652e-05
2.17234e-08
8.62224e-09
1.12933e-05
1.9715e-05
3.80467e-05
2.93397e-10
5.02249e-10
0
0.000182441
0
1.53324e-05
3.85912e-10
1.90365e-05
1.0348e-05
9.68547e-10
1.85412e-09
4.74088e-05
0
1.23926e-05
0.000262163
2.41069e-05
2.14026e-07
0
0.00310507
0.00344682
2.43991e-05
0.00788976
0.00380799
0
3.11863e-05
2.17693e-05
0.0082447
0.00220342
6.05461e-09
0.00121417
4.52508e-09
1.45845e-09
2.40917e-09
0.00541653
2.03311e-09
0.0046335
6.67486e-08
0.000752223
2.53556e-10
1.56498e-07
0
0.000456143
9.60797e-08
2.27009e-09
0.00037116
8.01332e-08
0.000724082
3.95416e-07
0.00199566
6.70913e-07
3.22185e-07
3.24524e-10
0.00150621
2.71069e-07
1.12786e-07
0.00110263
1.16474e-07
0
0.000363848
6.99836e-08
0.000309542
1.75036e-08
0.000418902
5.62068e-08
1.30512e-06
0.0197173
5.25626e-08
0.00175717
0
0.00208175
0
4.02619e-08
0.00457886
5.4583e-08
0.000899065
5.52917e-08
0.00555666
0.000952667
1.66408e-06
9.02952e-07
2.25167e-06
0
5.27793e-07
0.00010473
0.00555263
1.61311e-07
0.000214496
0.00639418
0.000758755
7.71183e-05
0.00399501
1.23143e-06
0
4.25618e-10
0.00363705
0
0.00142983
1.8622e-10
0.00656589
6.71892e-05
0.000104162
0
2.34275e-10
0
4.72124e-10
4.46253e-05
1.15377e-06
0.000125072
8.99803e-05
0
0.00775741
0.000357883
0.000308173
5.03585e-06
0.00170574
2.03808e-06
0.000305874
0.00913123
0.000210594
0.000197521
3.09647e-09
8.66027e-05
1.76849e-09
0.000237931
9.97405e-10
0
0
0
0
2.27479e-10
0
0.000285938
0.00175573
0.0103769
0.000236471
0.00128611
3.97276e-06
0.00430348
0
2.64836e-09
0.0003859
0.00209014
1.12571e-06
0
0
6.18103e-06
0.000150797
8.05157e-06
0
0
7.21749e-10
0.00336999
0
1.72475e-08
1.37707e-08
0.00858481
1.07745e-09
9.33324e-10
0
0
3.45003e-09
0
9.67476e-09
0.000134019
4.03212e-08
5.45566e-08