# vtk DataFile Version 2.0
Unstructured Grid by M++
ASCII
DATASET UNSTRUCTURED_GRID
POINTS 4072 float
  0.609375   0.843750 0
  0.562500   0.843750 0
  0.531250   0.843750 0
  0.875000   0.828125 0
  0.984375   0.828125 0
  0.953125   0.828125 0
  0.937500   0.828125 0
  0.843750   0.828125 0
  0.812500   0.828125 0
  0.781250   0.828125 0
  0.765625   0.828125 0
  0.734375   0.828125 0
  0.703125   0.828125 0
  0.671875   0.828125 0
  0.640625   0.828125 0
  0.609375   0.828125 0
  0.593750   0.828125 0
  0.562500   0.828125 0
  0.546875   0.828125 0
  0.531250   0.828125 0
  0.515625   0.828125 0
  0.968750   0.812500 0
  0.937500   0.812500 0
  0.921875   0.812500 0
  0.890625   0.812500 0
  0.859375   0.812500 0
  0.828125   0.812500 0
  0.796875   0.812500 0
  0.765625   0.812500 0
  0.750000   0.812500 0
  0.718750   0.812500 0
  0.687500   0.812500 0
  0.656250   0.812500 0
  0.625000   0.812500 0
  0.593750   0.812500 0
  0.578125   0.812500 0
  0.546875   0.812500 0
  0.531250   0.812500 0
  0.515625   0.812500 0
  0.984375   0.796875 0
  0.562500   0.015625 0
  0.953125   0.796875 0
  0.921875   0.796875 0
  0.906250   0.796875 0
  0.875000   0.796875 0
  0.843750   0.796875 0
  0.812500   0.796875 0
  0.781250   0.796875 0
  0.750000   0.796875 0
  0.734375   0.796875 0
  0.703125   0.796875 0
  0.671875   0.796875 0
  0.640625   0.796875 0
  0.609375   0.796875 0
  0.578125   0.796875 0
  0.562500   0.796875 0
  0.531250   0.796875 0
  0.515625   0.796875 0
  0.968750   0.781250 0
  0.546875   0.000000 0
  0.937500   0.781250 0
  0.906250   0.781250 0
  0.890625   0.781250 0
  0.859375   0.781250 0
  0.828125   0.781250 0
  0.796875   0.781250 0
  0.765625   0.781250 0
  0.734375   0.781250 0
  0.718750   0.781250 0
  0.687500   0.781250 0
  0.656250   0.781250 0
  0.625000   0.781250 0
  0.593750   0.781250 0
  0.562500   0.781250 0
  0.546875   0.781250 0
  0.515625   0.781250 0
  0.984375   0.765625 0
  0.953125   0.765625 0
  0.921875   0.765625 0
  0.890625   0.765625 0
  0.875000   0.765625 0
  0.843750   0.765625 0
  0.812500   0.765625 0
  0.781250   0.765625 0
  0.750000   0.765625 0
  0.718750   0.765625 0
  0.703125   0.765625 0
  0.671875   0.765625 0
  0.640625   0.765625 0
  0.609375   0.765625 0
  0.578125   0.765625 0
  0.593750   0.750000 0
  0.562500   0.765625 0
  0.546875   0.765625 0
  0.531250   0.765625 0
  0.562500   0.750000 0
  0.968750   0.750000 0
  0.937500   0.750000 0
  0.906250   0.750000 0
  0.875000   0.750000 0
  0.859375   0.750000 0
  0.828125   0.750000 0
  0.796875   0.750000 0
  0.765625   0.750000 0
  0.734375   0.750000 0
  0.703125   0.750000 0
  0.687500   0.750000 0
  0.671875   0.750000 0
  0.656250   0.750000 0
  0.625000   0.750000 0
  0.546875   0.750000 0
  0.531250   0.750000 0
  0.515625   0.750000 0
  0.562500   0.734375 0
  0.984375   0.734375 0
  0.953125   0.734375 0
  0.921875   0.734375 0
  0.890625   0.734375 0
  0.859375   0.734375 0
  0.843750   0.734375 0
  0.812500   0.734375 0
  0.781250   0.734375 0
  0.750000   0.734375 0
  0.718750   0.734375 0
  0.687500   0.734375 0
  0.671875   0.734375 0
  0.656250   0.734375 0
  0.640625   0.734375 0
  0.546875   0.734375 0
  0.531250   0.734375 0
  0.515625   0.734375 0
  0.562500   0.718750 0
  0.968750   0.718750 0
  0.937500   0.718750 0
  0.906250   0.718750 0
  0.875000   0.718750 0
  0.843750   0.718750 0
  0.796875   0.718750 0
  0.765625   0.718750 0
  0.734375   0.718750 0
  0.703125   0.718750 0
  0.687500   0.718750 0
  0.671875   0.718750 0
  0.656250   0.718750 0
  0.625000   0.718750 0
  0.546875   0.718750 0
  0.531250   0.718750 0
  0.515625   0.718750 0
  0.562500   0.703125 0
  0.953125   0.703125 0
  0.921875   0.703125 0
  0.890625   0.703125 0
  0.859375   0.703125 0
  0.828125   0.703125 0
  0.781250   0.703125 0
  0.750000   0.703125 0
  0.718750   0.703125 0
  0.687500   0.703125 0
  0.656250   0.703125 0
  0.546875   0.703125 0
  0.531250   0.703125 0
  0.515625   0.703125 0
  0.984375   0.687500 0
  0.937500   0.687500 0
  0.921875   0.687500 0
  0.906250   0.687500 0
  0.875000   0.687500 0
  0.843750   0.687500 0
  0.812500   0.687500 0
  0.765625   0.687500 0
  0.734375   0.687500 0
  0.703125   0.687500 0
  0.671875   0.687500 0
  0.640625   0.687500 0
  0.593750   0.687500 0
  0.562500   0.687500 0
  0.546875   0.687500 0
  0.531250   0.687500 0
  0.515625   0.687500 0
  0.968750   0.671875 0
  0.937500   0.671875 0
  0.921875   0.671875 0
  0.906250   0.671875 0
  0.890625   0.671875 0
  0.859375   0.671875 0
  0.828125   0.671875 0
  0.796875   0.671875 0
  0.765625   0.671875 0
  0.750000   0.671875 0
  0.718750   0.671875 0
  0.687500   0.671875 0
  0.656250   0.671875 0
  0.625000   0.671875 0
  0.593750   0.671875 0
  0.578125   0.671875 0
  0.546875   0.671875 0
  0.531250   0.671875 0
  0.515625   0.671875 0
  0.984375   0.656250 0
  0.953125   0.656250 0
  0.937500   0.656250 0
  0.921875   0.656250 0
  0.906250   0.656250 0
  0.875000   0.656250 0
  0.843750   0.656250 0
  0.812500   0.656250 0
  0.781250   0.656250 0
  0.750000   0.656250 0
  0.734375   0.656250 0
  0.703125   0.656250 0
  0.671875   0.656250 0
  0.640625   0.656250 0
  0.609375   0.656250 0
  0.578125   0.656250 0
  0.562500   0.656250 0
  0.531250   0.656250 0
  0.515625   0.656250 0
  0.968750   0.640625 0
  0.937500   0.640625 0
  0.906250   0.640625 0
  0.890625   0.640625 0
  0.859375   0.640625 0
  0.828125   0.640625 0
  0.796875   0.640625 0
  0.765625   0.640625 0
  0.734375   0.640625 0
  0.718750   0.640625 0
  0.687500   0.640625 0
  0.656250   0.640625 0
  0.625000   0.640625 0
  0.593750   0.640625 0
  0.562500   0.640625 0
  0.546875   0.640625 0
  0.515625   0.640625 0
  0.984375   0.625000 0
  0.953125   0.625000 0
  0.921875   0.625000 0
  0.890625   0.625000 0
  0.875000   0.625000 0
  0.843750   0.625000 0
  0.812500   0.625000 0
  0.781250   0.625000 0
  0.750000   0.625000 0
  0.734375   0.625000 0
  0.718750   0.625000 0
  0.703125   0.625000 0
  0.671875   0.625000 0
  0.640625   0.625000 0
  0.609375   0.625000 0
  0.578125   0.625000 0
  0.562500   0.625000 0
  0.546875   0.625000 0
  0.531250   0.625000 0
  0.968750   0.609375 0
  0.937500   0.609375 0
  0.906250   0.609375 0
  0.875000   0.609375 0
  0.859375   0.609375 0
  0.828125   0.609375 0
  0.796875   0.609375 0
  0.765625   0.609375 0
  0.750000   0.609375 0
  0.734375   0.609375 0
  0.718750   0.609375 0
  0.703125   0.609375 0
  0.687500   0.609375 0
  0.656250   0.609375 0
  0.625000   0.609375 0
  0.593750   0.609375 0
  0.562500   0.609375 0
  0.546875   0.609375 0
  0.531250   0.609375 0
  0.515625   0.609375 0
  0.984375   0.593750 0
  0.953125   0.593750 0
  0.921875   0.593750 0
  0.890625   0.593750 0
  0.859375   0.593750 0
  0.843750   0.593750 0
  0.812500   0.593750 0
  0.781250   0.593750 0
  0.750000   0.593750 0
  0.734375   0.593750 0
  0.718750   0.593750 0
  0.687500   0.593750 0
  0.671875   0.593750 0
  0.640625   0.593750 0
  0.609375   0.593750 0
  0.578125   0.593750 0
  0.562500   0.593750 0
  0.546875   0.593750 0
  0.531250   0.593750 0
  0.515625   0.593750 0
  0.968750   0.578125 0
  0.937500   0.578125 0
  0.906250   0.578125 0
  0.875000   0.578125 0
  0.890625   0.562500 0
  0.843750   0.578125 0
  0.828125   0.578125 0
  0.796875   0.578125 0
  0.765625   0.578125 0
  0.734375   0.578125 0
  0.703125   0.578125 0
  0.671875   0.578125 0
  0.656250   0.578125 0
  0.656250   0.562500 0
  0.625000   0.578125 0
  0.640625   0.562500 0
  0.593750   0.578125 0
  0.562500   0.578125 0
  0.546875   0.578125 0
  0.531250   0.578125 0
  0.515625   0.578125 0
  0.859375   0.562500 0
  0.828125   0.562500 0
  0.781250   0.562500 0
  0.750000   0.562500 0
  0.718750   0.562500 0
  0.687500   0.562500 0
  0.609375   0.562500 0
  0.578125   0.562500 0
  0.562500   0.562500 0
  0.546875   0.562500 0
  0.531250   0.562500 0
  0.515625   0.562500 0
  1.000000   0.812500 0
  0.578125   0.031250 0
  0.875000   0.546875 0
  0.625000   0.546875 0
  0.218750   0.000000 0
  0.640625   0.781250 0
  0.828125   0.093750 0
  0.031250   0.531250 0
  0.296875   0.328125 0
  0.296875   0.312500 0
  0.281250   0.312500 0
  0.765625   0.312500 0
  0.031250   0.859375 0
  0.093750   0.265625 0
  0.109375   0.250000 0
  0.187500   0.671875 0
  0.421875   0.640625 0
  0.031250   0.062500 0
  0.140625   0.125000 0
  0.562500   0.906250 0
  0.125000   0.437500 0
  0.203125   0.937500 0
  0.125000   0.421875 0
  0.140625   0.406250 0
  0.093750   0.437500 0
  0.109375   0.421875 0
  0.093750   0.421875 0
  0.109375   0.406250 0
  0.328125   0.125000 0
  0.750000   0.906250 0
  0.328125   0.109375 0
  0.750000   0.890625 0
  0.312500   0.125000 0
  0.734375   0.906250 0
  0.281250   0.343750 0
  0.265625   0.359375 0
  0.500000   0.796875 0
  0.078125   0.015625 0
  0.062500   0.015625 0
  0.484375   0.796875 0
  0.484375   0.781250 0
  0.062500   0.000000 0
  0.015625   0.250000 0
  0.062500   0.046875 0
  0.484375   0.828125 0
  0.484375   0.812500 0
  0.062500   0.031250 0
  0.281250   0.671875 0
  0.062500   0.234375 0
  0.328125   0.765625 0
  0.312500   0.750000 0
  0.015625   0.671875 0
  0.781250   0.187500 0
  0.015625   0.265625 0
  0.453125   0.250000 0
  0.453125   0.234375 0
  0.031250   0.265625 0
  0.046875   0.250000 0
  0.093750   0.015625 0
  0.265625   0.656250 0
  0.734375   0.281250 0
  0.156250   0.015625 0
  0.062500   0.265625 0
  0.046875   0.281250 0
  0.031250   0.281250 0
  0.343750   0.781250 0
  0.328125   0.781250 0
  0.265625   0.687500 0
  0.265625   0.703125 0
  0.156250   0.109375 0
  0.578125   0.890625 0
  0.484375   0.984375 0
  0.062500   0.203125 0
  0.328125   0.718750 0
  0.343750   0.734375 0
  0.343750   0.750000 0
  0.453125   0.500000 0
  0.437500   0.500000 0
  0.234375   0.093750 0
  0.171875   0.375000 0
  0.437500   0.531250 0
  0.468750   0.546875 0
  0.453125   0.546875 0
  0.187500   0.015625 0
  0.187500   0.000000 0
  0.609375   0.781250 0
[...]
CELL_DATA 7648
SCALARS scalar_value float 1
LOOKUP_TABLE default
1.14396e-05
1.26293e-05
1.52077e-05
1.11156e-05
0.0149086
0.01642
0.017896
0.0168403
1.19996e-05
1.45278e-05
1.56956e-05
0.00661188
0.00781728
0.00583456
1.78064e-06
1.5017e-06
1.60151e-06
1.15485e-06
2.57448e-09
2.51296e-09
3.16867e-09
2.1179e-09
2.18041e-09
2.0422e-10
2.25774e-10
3.30608e-10
1.77982e-10
6.34532e-05
7.07478e-05
0
0
1.02748e-10
0
1.72679e-10
2.20376e-10
2.8683e-10
1.91072e-10
0
0
1.27664e-10
0
0
3.6583e-05
5.54868e-05
6.00138e-05
0.000889084
0.00107991
0.00128611
3.11051e-10
0.00127744
0.00640823
4.42616e-09
3.85759e-10
5.33311e-10
6.01013e-05
3.00762e-10
8.41673e-05
4.79057e-05
0
1.11228e-10
1.63158e-10
1.13493e-09
1.05353e-09
0.000129257
0.000101934
0
0
2.73473e-10
5.35546e-07
0
1.43635e-07
0
1.96365e-06
4.06788e-06
0.000106509
0
3.5339e-05
0
0.000114821
8.60439e-06
1.23004e-05
0
0
0
0.00255536
2.48007e-10
8.75307e-08
7.87199e-08
0.000272362
0
0
0
4.62186e-09
6.73625e-09
0
1.56005e-10
0.00012099
2.34929e-10
0.000148284
0.000194117
6.06071e-06
1.33338e-09
7.01603e-06
1.38156e-05
2.9557e-09
1.67898e-07
1.50118e-06
0.00230289
0.00251645
0
1.11176e-10
4.54278e-06
4.61313e-06
0
7.86556e-09
0
1.06839e-08
5.39765e-09
2.17298e-10
0.0138919
0.0153314
0
0
2.05507e-08
0
0
0
0.000296886
0.000388717
0.000249143
0
0.000236876
0
0.00268119
3.11408e-07
0.0028655
4.02736e-05
6.81031e-10
1.47544e-10
0.000824711
0.000142235
0.000970011
0.001069
0
0.00107758
0.00099789
0.0170886
5.10995e-09
0.00728344
0.000155841
0.000153742
4.32853e-10
5.77024e-10
7.43511e-10
0.00632871
0.00496182
0.00620997
0
0.00154232
4.98997e-10
0
2.69263e-09
3.17157e-09
1.2939e-06
0.000880316
0.00113208
0
0.000772366
9.60848e-10
0.0270517
0
0.000646855
0.00151331
0.00228138
3.73338e-06
2.26292e-08
0.0144694
0.000382236
3.88723e-07
0.000457029
0.000595803
5.71987e-07
0.00305886
5.19558e-05
0
7.06231e-09
0.00600554
0
0
9.24351e-05
0
0.000118514
0.000348726
0
0
0.000414233
0.000486968
0.000431684
0
0
0
0.00356024
8.41815e-09
0.00729206
0.00705196
8.4075e-09
6.4898e-10
0.00341094
0.00428849
0.00322563
0
0
0
0
0.00042179
1.29838e-08
0
0.0353394
0
3.13777e-05
6.91954e-05
0.000533266
0.000671187
0
0.000536629
0
9.51091e-06
2.76848e-05
0.000449911
0.000367732
0.0115284
0.00938233
0.000213843
1.52147e-07
0.0114091
0.0125624
0.0132476
0.0131363
0.000154028
0
0.000131414
0.00524605
1.16999e-07
0.000172107
0.000204759
0.000382801
5.05625e-07
0.000339825
0.000424402
0
0.000336472
6.83138e-05
6.46875e-10
8.9167e-10
8.82477e-10
3.68077e-05
5.87756e-08
0.000344146
0.000442749
2.02771e-09
2.59486e-09
2.63621e-09
0.000403952
0
0
0.000319185
0
0.000876001
0
0.000200518
0.0021947
2.7509e-09
0
0.012471
0.00393066
0
0.0292674
0.000298355
7.07531e-08
8.81984e-08
0
2.08236e-05
0.00018629
0.00705304
1.84706e-07
0.000717868
0.00749329
0
0
0.000297967
0
0.00418903
1.92025e-05
0
1.01186e-07
1.02805e-07
0
1.28454e-07
0
8.91768e-05
7.15443e-09
2.74124e-07
0.0115763
0.00017331
1.36059e-09
1.10244e-09
1.00313e-09
1.01686e-08
0.000281307
2.92211e-08
2.02639e-08
0.000335975
0.00479802
0
0.000653127
5.48673e-06
1.06144e-08
0.00056939
8.0949e-09
2.99017e-06
5.5403e-09
9.11826e-10
1.51089e-05
9.93116e-05
0.000223598
7.72309e-08
1.48299e-08
0.000106991
0.000156469
3.39255e-08
0.000164113
3.75274e-10
0.00094079
8.92375e-06
0.0118004
8.06256e-06
0.0119167
0.00787743
0.0070225
4.02817e-09
4.75884e-05
0.0102512
0.00976119
0
0.0113348
3.63982e-06
5.33152e-06
0.00961397
0
0
0
0
2.63001e-09
0.000452221
0
0.000344389
0
0.0156742
0.0141389
0.0144156
1.01523e-07
7.83861e-08
8.13092e-08
5.86317e-07
0.000166459
0.000527897
0.000216943
0
0
0
0.000149536
4.46566e-07
0
0.000170521
0
0.000297815
0.00266512
0
1.06807e-05
1.06736e-09
7.31879e-08
0.000458846
1.88723e-07
1.34346e-05
0.000551552
1.2951e-06
0.000587503
2.62114e-07
0
0.00279584
0.00269508
1.07734e-06
0.00395297
0.00400243
0.00294234
4.95236e-10
4.13482e-10
0.00884818
0.000766492
1.44015e-06
1.22761e-10
0.00271708
0.000164356
6.43088e-06
0.000226448
8.48521e-07
0
7.17214e-05
0.0041843
3.71043e-10
0.00602087
0.000183645
0.000111644
0.00258069
3.09716e-07
3.08025e-05
0
3.09807e-05
0
3.01487e-07
5.44608e-05
5.08749e-07
0.00487856
1.07727e-09
2.09798e-09
1.85982e-09
0.0173217
1.90291e-09
0.000217886
1.016e-10
0.000119896
1.05673e-08
0
0
0
0
0
0
0.00615562
6.73884e-05
2.34033e-08
4.49588e-05
1.70108e-09
1.51889e-09
0.00035278
2.04181e-09
0.000363625
0.000311054
5.3915e-05
8.9521e-05
0.0102776
1.34925e-08
0
9.10114e-09
6.56372e-05
1.07733e-10
1.39027e-10
1.18547e-10
7.65281e-05
0.000627836
0.0047533
6.56612e-09
2.57777e-05
2.60776e-05
0
0
0
0
0
0
0.000317001
0
9.36656e-08
0
0
9.13197e-08
1.55194e-09
1.25127e-05
0
7.41129e-05
0
4.84064e-08
0
0
0.000132202
0.000177061
0.000234035
0.000177097
1.73207e-08
2.87608e-08
0
1.22884e-08
0
7.16196e-08
8.17318e-05
0
1.09714e-08
0.0127684
6.8545e-06
0
0
0.000321076
1.43002e-06
1.10795e-10
0
0.00149831
1.89956e-10
1.47496e-10
1.42153e-10
1.09182e-10
0.0105823
9.24591e-05
1.44249e-10
0
0.000126913
0
0.000252529
1.39063e-10
0
0.000317627
1.10674e-10
0.001152
0
1.51214e-10
0.0002296
6.33187e-07
0.0260353
0.000635987
6.41267e-07
4.51154e-07
0.000494889
0
0.00976884
0
3.22951e-06
0.00675442
6.00872e-06
0.00528089
2.53941e-06
9.17348e-06
3.75884e-06
1.17628e-05
0
0
0.00493093
3.48852e-07
0.00175207
4.6362e-07
0.000207773
5.98645e-07
4.29705e-07
0.0207656
6.9228e-07
5.79834e-07
4.3238e-06
4.70039e-06
6.25802e-06
0.00130327
2.46247e-10
1.23112e-10
0.00122543
0
0
0
1.87571e-05
4.29361e-07
3.47925e-09
2.1139e-05
1.76107e-05
3.10564e-05
1.3964e-09
0.000300699
4.94763e-07
0.00049398
0
2.15574e-07
0.00318814
0
0.001396
3.65287e-09
2.6871e-06
2.57378e-06
0
0
0.000318852
0
4.63989e-06
0.000732095
0
0.00165557
0.00206228
0
0
0
0.0145697
1.49742e-10
6.25235e-07
0.000140911
0
0.000260632
0
0
0
0
0.00013336
0.00444032
0
0.0114526
3.90933e-07
0.02145
0.0219749
0.0233321
0.000438257
0.000381985
0.000408261
1.98131e-09
0.00223152
1.64971e-09
1.02105e-10
0
0.00039316
0
0
0
0.00723771
0
0
0
0
0
0
0.000416641
0
0
0.0166249
6.1755e-08
0.0194326
0.000197741
7.48914e-07
6.36402e-07
0.0055452
0.00391797
2.84482e-06
0.00820062
0.000409694
0.000502996
0.00405496
0
0
0
1.46854e-07
0.000370271
0.000426338
0
0
1.68646e-07
0
1.31129e-07
4.85113e-07
8.92068e-08
3.67384e-05
3.69972e-05
6.69235e-08
0
1.25247e-09
0.0043361
0
1.39497e-09
0
0
0
3.07777e-10
0.0138004
0
0.0130451
1.24552e-08
4.76313e-06
5.20801e-06
7.08036e-06
0.00182133
0.00190385
0.00208135
2.13642e-05
0
1.8366e-06
0.00062494
0.00167037
0.000644977
0
0.00325753
0.000767434
0.000853063
0
3.23398e-06
0.000820707
0.00107069
5.08265e-06
1.24481e-09
0.0025445
0.000387983
0.000307718
0.000764942
8.04504e-05
8.04163e-08
4.71234e-05
3.49209e-08
3.45953e-05
4.57588e-05
0.00437274
0.00494755
0.00893712
0.00994546
0.0105013
0.000121535
7.47197e-05
0.00733328
0.00806923
9.92176e-09
6.33201e-08
0.00769721
0.00909928
3.86208e-05
4.30456e-05
3.52225e-05
0.00501177
0.00558298
0.000275843
0.00642117
1.73665e-05
2.06189e-05
2.64885e-05
0.00329836
0.00370859
0.00431527
6.21626e-10
3.8025e-10
1.96729e-06
0.00240985
0.00226888
0.00282203
0.000483982
0.0025258
0.00319771
0.00313123
1.96535e-10
8.069e-06
7.80142e-08
1.10756e-05
1.65563e-05
1.43502e-09
0.00174746
0.00205116
0.00244259
0
0
0
0
2.98681e-05
2.13516e-05
0
0.000720998
3.37911e-08
0
0
7.33139e-07
0
0.00362641
0.00310523
5.74963e-07
1.89508e-07
2.12772e-07
1.60967e-07
2.64848e-07
2.29857e-07
1.94138e-07
4.39995e-07
0
6.7447e-07
7.0927e-07
1.95973e-05
2.78971e-05
5.16402e-08
9.46634e-08
0
0.00134346
0
1.18218e-05
1.50609e-05
0.00148321
2.18516e-07
1.99941e-07
0
1.43274e-08
1.46026e-09
0.000798218
3.19163e-08
6.83608e-10
0.00014881
0
0.000235164
0
0
0.000194937
6.30063e-09
1.25133e-05
0
0.000197287
2.24009e-05
2.30691e-08
8.92606e-09
1.56639e-05
0
1.24193e-07
7.28092e-05
1.09769e-07
1.23534e-07
2.72548e-05
1.24742e-07
0.000520431
0.000597661
0
0.000169891
0.000709907
0
0
0.0204976
0.000634981
0.000166171
0
0.000204922
0
8.26963e-08
0.000318134
0.000338759
0.000270496
1.07835e-07
9.64342e-08
0.0067602
0.000171423
0.000136162
2.66592e-10
4.35558e-05
5.45221e-05
0
1.16195e-08
0.00912205
0.000141018
1.28882e-10
1.36262e-09
0.00113155
0.00306494
1.09072e-06
0.00042267
0.000474442
2.35035e-06
0.000490034
0
5.69726e-05
2.09063e-07
3.27192e-06
0.0006775
3.59194e-10
0.000791856
0.00486497
0
0
0.00217545
5.35815e-10
0.000471662
2.49961e-09
6.12443e-09
3.81443e-05
5.62006e-09
0
0
0
5.18966e-09
2.74311e-09
0
0.000151669
0
5.67125e-05
1.81641e-09
2.15454e-09
0
1.25984e-08
6.1304e-05
9.75629e-05
2.80282e-08
0
0
1.27455e-05
1.56903e-05
1.17698e-05
0.0050761
1.85894e-05
0
0
1.54086e-05
2.18102e-05
8.3958e-08
1.28569e-05
0.00016216
0
0
7.09557e-10
0.000279707
7.90226e-10
4.73313e-10
2.15769e-05
1.17612e-08
4.79365e-09
1.47037e-05
0.00253085
0.00328797
0
5.08538e-10
0.00198935
6.52239e-10
6.253e-10
9.99211e-10
0.0158097
3.13841e-08
5.95665e-10
2.60079e-10
4.11947e-08
0.000246584
8.78469e-10
0.000300363
0.000208146
0.00836347
0
5.2114e-05
6.26677e-05
8.47771e-05
0.000132978
8.56909e-08
8.24401e-05
4.28343e-08
1.98982e-08
5.0616e-05
4.76622e-05
1.77661e-09
3.19307e-05
7.76835e-09
3.71202e-05
0.0057127
0
4.63537e-06
0
2.97107e-06
3.44637e-10
6.6011e-10
6.72062e-06
2.01316e-08
2.01785e-06
8.55898e-05
0
0
0
0.00602037
0.00736925
0
0.000813168
0
0
0
1.09318e-05
3.59639e-09
0.00271666
0
0.00300372
2.24909e-09
0
3.14026e-05
0.000263885
0.0215631
0.0138852
0.0203751
0.0250792
0.000680201
0.0196258
0.00449526
8.93122e-09
0.00351551
0.000919202
3.68176e-09
0.00296099
0.00296011
1.38361e-10
7.36046e-05
5.74009e-09
0
1.60865e-05
0.000384954
3.26837e-07
1.69062e-07
0.00029697
0.015846
1.40207e-06
0
0.00021341
6.73878e-09
0.00257407
0.0151152
0.000490907
0.0175422
0.000776489
1.01419e-06
5.76455e-05
0.017439
0.00345791
3.25674e-05
0.000395083
2.96758e-07
4.43344e-07
0.00289056
2.12535e-09
4.41363e-05
1.68676e-07
1.52368e-05
6.53497e-09
0.00582958
4.69445e-05
3.9334e-08
1.5956e-08
1.61915e-05
0.0010438
0
0.0184188
0
0
0
4.55358e-05
0
2.22801e-05
7.81712e-08
1.5247e-05
0.0198478
4.84661e-08
0.000329742
2.95154e-05
1.44907e-08
0
0
1.03553e-10
6.69867e-06
0
0
0
1.05673e-09
0.0173967
1.24328e-07
0.027337
0.00300631
0.00580675
2.21263e-08
2.09563e-09
0.00135989
0.003032
2.12629e-09
0.0210838
0.00938501
3.14162e-08
9.23007e-10
0
9.91929e-10
1.49434e-08
1.44453e-05
0.000861024
0.0186367
0.00134606
5.4695e-10
7.03756e-10
8.80675e-10
6.32984e-10
0.000497195
0.0197974
0.000420778
0
0.000526107
0.0222473
0
8.79038e-07
0.00430871
1.56001e-10
0.0209553
0.00277189
0.00094318
0
2.27579e-10
3.15247e-07
0.000477754
0
0.000379172
0
0.00852055
1.22412e-07
1.65054e-05
0.00038548
0
0
3.90212e-10
1.10833e-06
0.000395425
2.28166e-07
0
0.000360933
0.000562616
1.41287e-10
4.08381e-08
0.000246083
0.000332823
9.74977e-08
0
1.63305e-06
0.000277297
0
7.60905e-07
0
4.37303e-10
6.79372e-10
0
3.312e-09
0
3.86131e-06
0.000222955
0.00025023
0
3.45778e-05
1.44754e-10
1.04852e-06
0.000219825
1.62218e-08
3.19773e-10
0.0102518
4.88557e-07
0
4.24294e-05
0
0.00569697
4.6566e-07
3.36809e-06
0.000715155
9.99298e-10
0.000313795
9.23442e-10
0.00150535
2.24287e-06
2.22585e-10
0
0.00680101
0
1.67972e-10
0
0.00498058
0
0.00272379
2.45277e-09
1.10327e-05
2.03201e-05
5.47534e-09
2.08408e-09
0
3.16351e-10
0.000225207
1.14906e-08
0.00408079
0.00256207
5.35878e-08
1.01546e-05
3.54039e-09
1.36635e-05
1.61498e-05
0.00156112
4.55448e-06
1.05633e-05
2.69897e-09
0.00218394
2.03411e-05
3.29386e-06
0.00182616
4.90681e-06
0
3.09113e-05
0.00212812
0
7.28376e-06
1.17149e-10
0.00760201
0.000710857
0
2.20823e-09
0.00195992
0.00237447
1.96772e-09
3.19204e-09
1.52215e-06
7.76519e-06
0
0.001296
2.06711e-06
8.5825e-06
1.53485e-09
7.17015e-09
0
5.71553e-08
0.000690875
0
3.06597e-06
0
0.00712074
0.000108897
0
6.38907e-06
0
0.000109511
0.000794572
0.00944684
7.65767e-05
0.0024065
0
1.76831e-09
5.83708e-07
1.73263e-07
0
0
0
0
2.05449e-09
0.00181787
0
0
0.00103708
0.000757631
0
0.00203227
7.43926e-06
0.00132609
0.00145071
0.000401414
0.00342878
0.000195856
0.0375434
3.46494e-06
0.000844111
1.09485e-10
0.0246605
1.27951e-08
0
0.000311058
4.49849e-08
7.13307e-08
0.000567003
5.66031e-10
0.000380898
2.38733e-08
4.18498e-08
0
2.60992e-10
0.000614845
0.00970672
1.4109e-08
0.000230521
0.00442166
1.02692e-05
0
0.0121706
3.55991e-06
0
0.000496299
0.000886121
0.000487975
3.19508e-05
0.000369959
9.68096e-05
1.07538e-10
0.000499315
3.7871e-10
1.59511e-10
1.40368e-06
6.61028e-05
0
0.0343988
2.44858e-07
1.20265e-05
1.0105e-06
0
0.00215443
3.0042e-05
0
0
3.3588e-07
0
0
0
0.00360001
5.603e-07
1.87304e-05
0
0
1.06142e-05
0
0
0.00217591
0
0.000336064
0
0
1.97457e-09
9.60372e-06
1.67071e-05
4.47051e-09
0
0
9.44844e-05
0.000103515
1.83073e-07
0.000247775
0.000392478
2.90462e-07
0
0
5.01757e-05
2.64608e-05
0
0
0
6.84423e-05
1.15974e-07
8.66663e-09
5.13072e-08
0
0
0
0
0
9.87596e-06
1.38465e-07
0
1.18502e-07
0.00039945
2.81739e-07
2.24115e-07
0.00838841
0.00221892
2.54655e-07
0
4.11029e-06
0
0.00234644
0
5.79922e-08
0.000369065
1.41991e-07
1.25991e-10
0.00141031
4.67074e-10
0
0.00011931
1.47066e-07
0.0115844
4.53467e-06
0.0127294
0.00249112
2.55533e-07
1.59973e-09
4.30653e-09
0.00325145
0.00345687
4.79787e-06
8.91282e-10
3.00851e-05
8.97253e-09
0
0
1.97252e-10
4.16988e-07
0.000236628
0.000259222
8.28964e-07
8.85231e-05
2.71403e-09
0
0.0123186
0.00225065
0.000239082
0
0.0016555
5.48995e-07
0.0237724
0
0.000208401
5.32235e-05
0.00628471
0.000517705
0
0.000100519
3.00005e-09
0.00576345
8.91113e-05
0.00548131
0.000264826
0
0
0
2.44275e-08
0.000101488
2.09255e-06
6.3301e-08
0
0
0.00181299
4.4676e-10
0.0035826
0.00252311
0.00214934
0.0022459
0.00483018
4.64727e-08
0
0.0201574
0.00436662
0
7.27439e-09
0.000167965
0.000255502
1.68674e-08
0
0.00559722
6.76292e-07
0.000157396
0
0.0107398
0
0
5.30924e-08
0.00669261
0
0.00487546
0.000117593
2.11897e-07
0.023455
3.15124e-05
9.4885e-05
0
0.0101163
0.00132673
0.00111117
0.00344632
0.00280226
0.000210276
2.57239e-05
0.00521974
0.0101908
0
0.0184987
0
2.96104e-07
0.00538193
0.00408408
2.42621e-09
0.00676409
0.0226259
1.74044e-07
0.000229707
0.000230329
2.42192e-07
0.00702702
0.00213729
1.77354e-06
1.25806e-05
0.00137035
0.027947
0
0.00184746
2.0168e-10
4.28609e-08
0
0.000644342
3.75917e-08
0.00454821
2.58115e-10
0.000424484
0
8.42115e-05
0.00117074
8.39475e-06
5.05126e-06
0.00100438
4.28616e-06
0.0060362
0.000541694
0
0.00632108
0.00017614
0.00219343
2.9106e-07
0.000224628
0.000386243
0
0.0189313
0.000182803
1.21858e-08
3.96249e-07
0.00358032
0
0.000711556
4.19467e-09
0.00320933
0.00544463
3.75161e-07
2.19621e-05
3.64004e-09
1.22364e-08
0.000434654
0.000588278
0.0361111
0
0.000388248
0.00078378
0.00144893
0.0282442
3.59575e-06
0.0104937
6.34362e-09
2.1641e-09
0.000157149
6.78878e-08
0.000265696
2.18241e-08
0.00549895
0
4.14514e-07
0.00688719
0.000396824
0
0.000554975
4.56464e-05
0.00466651
0.00725955
0
3.6924e-05
5.52723e-08
0.000422408
0
0.00045427
3.53055e-07
5.10727e-10
2.30576e-06
5.34999e-06
1.11265e-09
0.0239402
4.27272e-10
3.78897e-07
0.000366025
0
0.00421252
0.0254197
0.000202507
0
4.96473e-07
0.0254933
8.20936e-10
0.00395628
4.45647e-10
5.16059e-10
0.000995872
0.00954893
5.36874e-07
0.000271922
0
0
1.72495e-08
1.94169e-06
0.000387915
0
0.000225135
0.000331185
7.53888e-08
0
2.86268e-09
3.52088e-08
4.36618e-09
0.00504718
1.03846e-09
0.0261908
5.30184e-10
3.27484e-10
0
2.33263e-09
0
0
1.857e-05
0.00170434
9.07398e-09
0
0.0102071
6.3232e-08
3.20048e-09
4.84669e-08
0
0.00119973
0.00506738
1.36373e-07
0.00014388
0.0223165
1.10779e-08
1.85246e-08
0
4.49466e-05
1.04061e-09
4.70094e-10
1.4811e-05
0.00556463
1.10959e-08
0.000660364
9.18169e-09
0.00017336
0.0018429
0.0116607
0
0.00010108
0.0231914
0.00122471
0.000289751
2.12539e-07
0.0290116
0.00573955
0.000223176
1.31703e-05
0.0072109
2.22565e-08
3.99447e-08
4.15338e-05
8.37652e-07
0.000230049
0
2.21679e-06
0.000256166
4.56233e-06
0.000488806
0
0
1.82747e-05
0.000967576
2.93033e-06
9.74566e-07
0.000679169
0.000468787
0.0325824
0.00193172
3.6759e-07
0.000129958
0.0128749
0.00937765
0.000177304
0
0.00179194
2.4377e-07
0.0003393
0
0.000121054
3.78262e-09
0.0086864
1.85575e-08
0.000214979
1.22458e-08
0
0.000293803
1.39386e-09
8.13002e-05
0.00824657
1.18922e-09
4.65757e-07
4.7668e-09
0.00188061
6.04591e-08
0
6.81687e-10
0.00333637
0.00156776
0.00183754
0.00627859
0.000669504
1.11465e-08
0.00471992
0.00462519
0.0306449
0.00178947
0.000999885
0
6.93455e-07
0.000153447
0.00755478
6.29131e-06
0.000830727
0.0015891
0.0222404
0
0
0.000521628
4.43719e-07
2.62081e-07
0.000346325
0.00148188
1.44589e-09
9.12273e-06
0.0253756
0.0270634
0.00120735
0.00141938
1.603e-10
0.0282508
4.60104e-09
0.00162257
1.84388e-10
0.0292804
0
0.00407589
0
0.0194639
0.000349382
3.22187e-07
1.70913e-08
3.89561e-05
3.37172e-05
1.56513e-07
3.54883e-05
0
0.00474193
1.08088e-07
0
0
0.0197472
1.96753e-05
0
0.000943694
4.19228e-10
0
0
0.000185838
0
0
4.88165e-05
9.66276e-05
3.37458e-09
2.38623e-05
7.48023e-09
0
5.43825e-08
2.20629e-09
3.47701e-09
0.000227349
7.79832e-10
0.00153467
1.17042e-09
0
0
8.38153e-05
3.82305e-07
1.19571e-09
3.04365e-10
0.000824797
0
0.00111552
0
0.000354204
0.00134175
2.82105e-10
0.00030639
5.65448e-06
0
0
7.19978e-05
0.0304726
2.75343e-10
0.000423949
1.15342e-07
0
1.68364e-05
0.0019407
1.73715e-05
0.002121
1.86016e-05
0.00157966
2.55823e-06
0.00168957
1.43867e-05
0
1.99481e-10
5.84646e-09
0.00492526
4.43052e-08
4.72244e-09
0.00388406
1.43993e-10
0.011175
0.000629192
0.00948825
1.49662e-05
0
0
0.000334604
0.00104132
0
1.34176e-07
1.68487e-07
0.00341361
0.00901924
6.77126e-05
0.000116501
0.000132384
1.39819e-07
1.37225e-06
0
0
0.00657306
0
0.000161477
0.00103994
4.0494e-10
0
0.000252597
0.00725866
0.00129936
3.65784e-10
6.0124e-10
4.72123e-10
5.33123e-10
3.61766e-06
3.22896e-10
3.62592e-06
4.55206e-07
0.0123119
0
0.00226764
4.16808e-10
5.19011e-06
5.37209e-10
0
6.32305e-10
0.0262075
0.00187246
6.9019e-10
2.60374e-06
1.51018e-09
1.8721e-06
0.00327102
2.93696e-10
2.0776e-09
2.70014e-05
2.72058e-05
1.11393e-07
2.31303e-05
1.89916e-10
0.000438179
2.75965e-05
0.000156189
6.09985e-09
2.7442e-09
9.20639e-05
0.00190561
4.97531e-09
0
0
1.83497e-09
3.16044e-08
4.61641e-09
9.46714e-05
0.00313335
0.00278353
0
0.000620264
1.58525e-05
1.27149e-05
0.00543269
0
1.47654e-05
0
0.000387388
0.00200415
1.70023e-09
0
2.40148e-10
0
0.00334546
0.00300912
9.0128e-06
0
0
1.90327e-05
6.09846e-09
5.54248e-09
0.00371724
0.000872606
2.51355e-05
0
7.74737e-10
3.11273e-05
1.59212e-06
0.0197768
0.012885
0.0217513
0
0
0
0
3.57771e-10
0
1.28286e-05
1.27551e-05
0.000868835
0.0229231
0.00031859
0.000271744
3.19918e-08
0
3.43076e-08
3.36478e-07
5.1558e-09
1.07432e-09
0.00503843
0
5.27043e-06
8.18739e-06
0.00607847
2.01014e-07
6.62598e-06
0.00388248
0
0
1.70357e-10
0.00236708
0.00244171
9.80565e-10
0
0.00208264
0
0.00180302
0.00699345
0.00269629
0.00262726
0
1.3291e-10
0.000275623
6.52121e-05
2.17707e-07
0.000139453
0
0
0.000728238
5.40201e-08
8.00764e-08
5.73662e-08
0.00460431
0
0.00469713
0.00549274
7.98648e-09
0
0
6.1756e-07
1.46364e-10
0
0.00944673
0.0008856
6.35378e-05
4.9442e-05
1.06215e-07
2.32869e-09
8.86716e-05
0.000133405
5.27835e-09
0.0103232
5.91521e-05
7.48973e-08
2.98911e-08
3.33523e-05
4.59652e-05
9.38524e-05
1.12033e-09
1.91405e-09
0
0.000377292
0
3.52298e-05
1.28277e-09
4.49896e-05
2.37121e-05
3.67304e-09
6.92447e-09
0.000105616
0
3.86356e-05
0.00049954
5.18822e-05
7.30403e-07
0
0.00501453
0.00552723
5.46814e-05
0.0144666
0.00617519
0
6.543e-05
4.58908e-05
0.015292
0.00340453
2.14911e-08
0.00295336
1.57453e-08
4.7986e-09
7.82734e-09
0.0106839
6.70983e-09
0.00941971
1.86784e-07
0.0017286
8.63513e-10
4.24366e-07
0
0.000962497
2.69123e-07
8.38755e-09
0.000795682
2.29659e-07
0.00146459
9.98744e-07
0.00456736
1.65335e-06
8.27825e-07
1.15245e-09
0.00348742
6.89474e-07
3.24081e-07
0.002581
3.05337e-07
0
0.000756748
1.88187e-07
0.000652106
6.22141e-08
0.000871145
1.54069e-07
3.20555e-06
0.035472
1.8462e-07
0.00329665
0
0.00393431
0
1.41826e-07
0.00743376
1.91586e-07
0.00172079
1.94139e-07
0.00900933
0.00183599
3.85453e-06
2.13875e-06
6.8049e-06
0
1.74995e-06
0.000297599
0.00838699
5.23953e-07
0.000531168
0.0118173
0.00128964
0.000221933
0.0059106
3.99066e-06
0
1.48415e-09