# vtk DataFile Version 2.0
Unstructured Grid by M++
ASCII
DATASET UNSTRUCTURED_GRID
POINTS 4072 float
  0.609375   0.843750 0
  0.562500   0.843750 0
  0.531250   0.843750 0
  0.875000   0.828125 0
  0.984375   0.828125 0
  0.953125   0.828125 0
  0.937500   0.828125 0
  0.843750   0.828125 0
  0.812500   0.828125 0
  0.781250   0.828125 0
  0.765625   0.828125 0
  0.734375   0.828125 0
  0.703125   0.828125 0
  0.671875   0.828125 0
  0.640625   0.828125 0
  0.609375   0.828125 0
  0.593750   0.828125 0
  0.562500   0.828125 0
  0.546875   0.828125 0
  0.531250   0.828125 0
  0.515625   0.828125 0
  0.968750   0.812500 0
  0.937500   0.812500 0
  0.921875   0.812500 0
  0.890625   0.812500 0
  0.859375   0.812500 0
  0.828125   0.812500 0
  0.796875   0.812500 0
  0.765625   0.812500 0
  0.750000   0.812500 0
  0.718750   0.812500 0
  0.687500   0.812500 0
  0.656250   0.812500 0
  0.625000   0.812500 0
  0.593750   0.812500 0
  0.578125   0.812500 0
  0.546875   0.812500 0
  0.531250   0.812500 0
  0.515625   0.812500 0
  0.984375   0.796875 0
  0.562500   0.015625 0
  0.953125   0.796875 0
  0.921875   0.796875 0
  0.906250   0.796875 0
  0.875000   0.796875 0
  0.843750   0.796875 0
  0.812500   0.796875 0
  0.781250   0.796875 0
  0.750000   0.796875 0
  0.734375   0.796875 0
  0.703125   0.796875 0
  0.671875   0.796875 0
  0.640625   0.796875 0
  0.609375   0.796875 0
  0.578125   0.796875 0
  0.562500   0.796875 0
  0.531250   0.796875 0
  0.515625   0.796875 0
  0.968750   0.781250 0
  0.546875   0.000000 0
  0.937500   0.781250 0
  0.906250   0.781250 0
  0.890625   0.781250 0
  0.859375   0.781250 0
  0.828125   0.781250 0
  0.796875   0.781250 0
  0.765625   0.781250 0
  0.734375   0.781250 0
  0.718750   0.781250 0
  0.687500   0.781250 0
  0.656250   0.781250 0
  0.625000   0.781250 0
  0.593750   0.781250 0
  0.562500   0.781250 0
  0.546875   0.781250 0
  0.515625   0.781250 0
  0.984375   0.765625 0
  0.953125   0.765625 0
  0.921875   0.765625 0
  0.890625   0.765625 0
  0.875000   0.765625 0
  0.843750   0.765625 0
  0.812500   0.765625 0
  0.781250   0.765625 0
  0.750000   0.765625 0
  0.718750   0.765625 0
  0.703125   0.765625 0
  0.671875   0.765625 0
  0.640625   0.765625 0
  0.609375   0.765625 0
  0.578125   0.765625 0
  0.593750   0.750000 0
  0.562500   0.765625 0
  0.546875   0.765625 0
  0.531250   0.765625 0
  0.562500   0.750000 0
  0.968750   0.750000 0
  0.937500   0.750000 0
  0.906250   0.750000 0
  0.875000   0.750000 0
  0.859375   0.750000 0
  0.828125   0.750000 0
  0.796875   0.750000 0
  0.765625   0.750000 0
  0.734375   0.750000 0
  0.703125   0.750000 0
  0.687500   0.750000 0
  0.671875   0.750000 0
  0.656250   0.750000 0
  0.625000   0.750000 0
  0.546875   0.750000 0
  0.531250   0.750000 0
  0.515625   0.750000 0
  0.562500   0.734375 0
  0.984375   0.734375 0
  0.953125   0.734375 0
  0.921875   0.734375 0
  0.890625   0.734375 0
  0.859375   0.734375 0
  0.843750   0.734375 0
  0.812500   0.734375 0
  0.781250   0.734375 0
  0.750000   0.734375 0
  0.718750   0.734375 0
  0.687500   0.734375 0
  0.671875   0.734375 0
  0.656250   0.734375 0
  0.640625   0.734375 0
  0.546875   0.734375 0
  0.531250   0.734375 0
  0.515625   0.734375 0
  0.562500   0.718750 0
  0.968750   0.718750 0
  0.937500   0.718750 0
  0.906250   0.718750 0
  0.875000   0.718750 0
  0.843750   0.718750 0
  0.796875   0.718750 0
  0.765625   0.718750 0
  0.734375   0.718750 0
  0.703125   0.718750 0
  0.687500   0.718750 0
  0.671875   0.718750 0
  0.656250   0.718750 0
  0.625000   0.718750 0
  0.546875   0.718750 0
  0.531250   0.718750 0
  0.515625   0.718750 0
  0.562500   0.703125 0
  0.953125   0.703125 0
  0.921875   0.703125 0
  0.890625   0.703125 0
  0.859375   0.703125 0
  0.828125   0.703125 0
  0.781250   0.703125 0
  0.750000   0.703125 0
  0.718750   0.703125 0
  0.687500   0.703125 0
  0.656250   0.703125 0
  0.546875   0.703125 0
  0.531250   0.703125 0
  0.515625   0.703125 0
  0.984375   0.687500 0
  0.937500   0.687500 0
  0.921875   0.687500 0
  0.906250   0.687500 0
  0.875000   0.687500 0
  0.843750   0.687500 0
  0.812500   0.687500 0
  0.765625   0.687500 0
  0.734375   0.687500 0
  0.703125   0.687500 0
  0.671875   0.687500 0
  0.640625   0.687500 0
  0.593750   0.687500 0
  0.562500   0.687500 0
  0.546875   0.687500 0
  0.531250   0.687500 0
  0.515625   0.687500 0
  0.968750   0.671875 0
  0.937500   0.671875 0
  0.921875   0.671875 0
  0.906250   0.671875 0
  0.890625   0.671875 0
  0.859375   0.671875 0
  0.828125   0.671875 0
  0.796875   0.671875 0
  0.765625   0.671875 0
  0.750000   0.671875 0
  0.718750   0.671875 0
  0.687500   0.671875 0
  0.656250   0.671875 0
  0.625000   0.671875 0
  0.593750   0.671875 0
  0.578125   0.671875 0
  0.546875   0.671875 0
  0.531250   0.671875 0
  0.515625   0.671875 0
  0.984375   0.656250 0
  0.953125   0.656250 0
  0.937500   0.656250 0
  0.921875   0.656250 0
  0.906250   0.656250 0
  0.875000   0.656250 0
  0.843750   0.656250 0
  0.812500   0.656250 0
  0.781250   0.656250 0
  0.750000   0.656250 0
  0.734375   0.656250 0
  0.703125   0.656250 0
  0.671875   0.656250 0
  0.640625   0.656250 0
  0.609375   0.656250 0
  0.578125   0.656250 0
  0.562500   0.656250 0
  0.531250   0.656250 0
  0.515625   0.656250 0
  0.968750   0.640625 0
  0.937500   0.640625 0
  0.906250   0.640625 0
  0.890625   0.640625 0
  0.859375   0.640625 0
  0.828125   0.640625 0
  0.796875   0.640625 0
  0.765625   0.640625 0
  0.734375   0.640625 0
  0.718750   0.640625 0
  0.687500   0.640625 0
  0.656250   0.640625 0
  0.625000   0.640625 0
  0.593750   0.640625 0
  0.562500   0.640625 0
  0.546875   0.640625 0
  0.515625   0.640625 0
  0.984375   0.625000 0
  0.953125   0.625000 0
  0.921875   0.625000 0
  0.890625   0.625000 0
  0.875000   0.625000 0
  0.843750   0.625000 0
  0.812500   0.625000 0
  0.781250   0.625000 0
  0.750000   0.625000 0
  0.734375   0.625000 0
  0.718750   0.625000 0
  0.703125   0.625000 0
  0.671875   0.625000 0
  0.640625   0.625000 0
  0.609375   0.625000 0
  0.578125   0.625000 0
  0.562500   0.625000 0
  0.546875   0.625000 0
  0.531250   0.625000 0
  0.968750   0.609375 0
  0.937500   0.609375 0
  0.906250   0.609375 0
  0.875000   0.609375 0
  0.859375   0.609375 0
  0.828125   0.609375 0
  0.796875   0.609375 0
  0.765625   0.609375 0
  0.750000   0.609375 0
  0.734375   0.609375 0
  0.718750   0.609375 0
  0.703125   0.609375 0
  0.687500   0.609375 0
  0.656250   0.609375 0
  0.625000   0.609375 0
  0.593750   0.609375 0
  0.562500   0.609375 0
  0.546875   0.609375 0
  0.531250   0.609375 0
  0.515625   0.609375 0
  0.984375   0.593750 0
  0.953125   0.593750 0
  0.921875   0.593750 0
  0.890625   0.593750 0
  0.859375   0.593750 0
  0.843750   0.593750 0
  0.812500   0.593750 0
  0.781250   0.593750 0
  0.750000   0.593750 0
  0.734375   0.593750 0
  0.718750   0.593750 0
  0.687500   0.593750 0
  0.671875   0.593750 0
  0.640625   0.593750 0
  0.609375   0.593750 0
  0.578125   0.593750 0
  0.562500   0.593750 0
  0.546875   0.593750 0
  0.531250   0.593750 0
  0.515625   0.593750 0
  0.968750   0.578125 0
  0.937500   0.578125 0
  0.906250   0.578125 0
  0.875000   0.578125 0
  0.890625   0.562500 0
  0.843750   0.578125 0
  0.828125   0.578125 0
  0.796875   0.578125 0
  0.765625   0.578125 0
  0.734375   0.578125 0
  0.703125   0.578125 0
  0.671875   0.578125 0
  0.656250   0.578125 0
  0.656250   0.562500 0
  0.625000   0.578125 0
  0.640625   0.562500 0
  0.593750   0.578125 0
  0.562500   0.578125 0
  0.546875   0.578125 0
  0.531250   0.578125 0
  0.515625   0.578125 0
  0.859375   0.562500 0
  0.828125   0.562500 0
  0.781250   0.562500 0
  0.750000   0.562500 0
  0.718750   0.562500 0
  0.687500   0.562500 0
  0.609375   0.562500 0
  0.578125   0.562500 0
  0.562500   0.562500 0
  0.546875   0.562500 0
  0.531250   0.562500 0
  0.515625   0.562500 0
  1.000000   0.812500 0
  0.578125   0.031250 0
  0.875000   0.546875 0
  0.625000   0.546875 0
  0.218750   0.000000 0
  0.640625   0.781250 0
  0.828125   0.093750 0
  0.031250   0.531250 0
  0.296875   0.328125 0
  0.296875   0.312500 0
  0.281250   0.312500 0
  0.765625   0.312500 0
  0.031250   0.859375 0
  0.093750   0.265625 0
  0.109375   0.250000 0
  0.187500   0.671875 0
  0.421875   0.640625 0
  0.031250   0.062500 0
  0.140625   0.125000 0
  0.562500   0.906250 0
  0.125000   0.437500 0
  0.203125   0.937500 0
  0.125000   0.421875 0
  0.140625   0.406250 0
  0.093750   0.437500 0
  0.109375   0.421875 0
  0.093750   0.421875 0
  0.109375   0.406250 0
  0.328125   0.125000 0
  0.750000   0.906250 0
  0.328125   0.109375 0
  0.750000   0.890625 0
  0.312500   0.125000 0
  0.734375   0.906250 0
  0.281250   0.343750 0
  0.265625   0.359375 0
  0.500000   0.796875 0
  0.078125   0.015625 0
  0.062500   0.015625 0
  0.484375   0.796875 0
  0.484375   0.781250 0
  0.062500   0.000000 0
  0.015625   0.250000 0
  0.062500   0.046875 0
  0.484375   0.828125 0
  0.484375   0.812500 0
  0.062500   0.031250 0
  0.281250   0.671875 0
  0.062500   0.234375 0
  0.328125   0.765625 0
  0.312500   0.750000 0
  0.015625   0.671875 0
  0.781250   0.187500 0
  0.015625   0.265625 0
  0.453125   0.250000 0
  0.453125   0.234375 0
  0.031250   0.265625 0
  0.046875   0.250000 0
  0.093750   0.015625 0
  0.265625   0.656250 0
  0.734375   0.281250 0
  0.156250   0.015625 0
  0.062500   0.265625 0
  0.046875   0.281250 0
  0.031250   0.281250 0
  0.343750   0.781250 0
  0.328125   0.781250 0
  0.265625   0.687500 0
  0.265625   0.703125 0
  0.156250   0.109375 0
  0.578125   0.890625 0
  0.484375   0.984375 0
  0.062500   0.203125 0
  0.328125   0.718750 0
  0.343750   0.734375 0
  0.343750   0.750000 0
  0.453125   0.500000 0
  0.437500   0.500000 0
  0.234375   0.093750 0
  0.171875   0.375000 0
  0.437500   0.531250 0
  0.468750   0.546875 0
  0.453125   0.546875 0
  0.187500   0.015625 0
  0.187500   0.000000 0
  0.609375   0.781250 0
[...]
CELL_DATA 7648
SCALARS scalar_value float 1
LOOKUP_TABLE default
1.22723e-07
1.36429e-07
1.65834e-07
1.19363e-07
0.00105235
0.00119632
0.00128803
0.00126395
1.29656e-07
1.58467e-07
1.71621e-07
0.000491507
0.000621496
0.000451957
1.65442e-08
1.3725e-08
1.46337e-08
1.03521e-08
0
0
0
0
0
0
0
0
0
1.03637e-06
1.18313e-06
0
0
0
0
0
0
0
0
0
0
0
0
0
8.34121e-07
1.35262e-06
1.53415e-06
2.48512e-05
3.08834e-05
3.66544e-05
0
3.32172e-05
0.000236941
0
0
0
2.44317e-06
0
3.55947e-06
2.03006e-06
0
0
0
0
0
6.27756e-06
4.83995e-06
0
0
0
5.68394e-09
0
1.11391e-09
0
2.54748e-08
5.65188e-08
4.31512e-06
0
5.03364e-07
0
5.07085e-06
1.25934e-07
1.8813e-07
0
0
0
8.82817e-05
0
6.63706e-10
5.95133e-10
1.61513e-05
0
0
0
0
0
0
0
3.85834e-06
0
4.56408e-06
6.15136e-06
8.8202e-08
0
1.0568e-07
2.18657e-07
0
1.77531e-09
1.55019e-08
8.06153e-05
0.000101304
0
0
1.63561e-07
1.70711e-07
0
0
0
0
0
0
0.00102363
0.00116575
0
0
1.87904e-10
0
0
0
5.42461e-06
7.36378e-06
4.62764e-06
0
6.50801e-06
0
0.000167425
2.48829e-09
0.000193961
4.69076e-07
0
0
2.42683e-05
6.00359e-06
2.91799e-05
3.19993e-05
0
3.31731e-05
2.71615e-05
0.00137646
0
0.000291596
8.32652e-06
8.50595e-06
0
0
0
0.000946831
0.000744999
0.000354685
0
3.83381e-05
0
0
0
0
1.53424e-08
2.23573e-05
3.00936e-05
0
2.01073e-05
0
0.00176062
0
1.20034e-05
5.0863e-05
0.000318573
1.34716e-07
2.99037e-10
0.000880501
9.15497e-06
3.87017e-09
1.0859e-05
1.48315e-05
5.97356e-09
0.000109289
8.08536e-07
0
0
0.00020039
0
0
1.65886e-06
0
2.29928e-06
1.52834e-05
0
0
1.87429e-05
2.17476e-05
2.02246e-05
0
0
0
0.000158311
0
0.000258072
0.000252203
0
0
0.000238904
0.000322702
0.000235213
0
0
0
0
7.16112e-06
0
0
0.00259381
0
9.08521e-07
1.98318e-06
9.88727e-06
1.29451e-05
0
1.02688e-05
0
2.88022e-07
8.50511e-07
9.05003e-06
7.40009e-06
0.000536422
0.000423928
4.28832e-06
1.34429e-09
0.000476447
0.000541129
0.000571936
0.0005797
3.29664e-06
0
2.84061e-06
0.000823528
8.9574e-10
9.74501e-06
1.19107e-05
6.57852e-06
4.50223e-09
5.86284e-06
7.58106e-06
0
6.00086e-06
3.01938e-06
0
0
0
5.2535e-07
4.8598e-10
1.90413e-05
2.60465e-05
0
0
0
1.21968e-05
0
0
5.24482e-06
0
2.03815e-05
0
3.05432e-06
5.30644e-05
0
0
0.000930309
0.000540588
0
0.00197243
1.37097e-05
5.31719e-10
6.66172e-10
0
2.31024e-07
8.24063e-06
0.00098075
1.46546e-09
3.17868e-05
0.00105825
0
0
9.17675e-06
0
0.000336208
7.13192e-07
0
8.43336e-10
8.58868e-10
0
1.07741e-09
0
3.86411e-06
0
2.18287e-09
0.00125354
8.87575e-06
0
0
0
0
1.16633e-05
2.10825e-10
1.4134e-10
1.00732e-05
0.000346896
0
4.1996e-05
8.2511e-08
0
3.59063e-05
0
4.10551e-08
0
0
1.64314e-07
2.32258e-06
5.81784e-06
7.48981e-10
1.3713e-10
2.67445e-06
3.98881e-06
3.20939e-10
4.86948e-06
0
2.50825e-05
9.40339e-08
0.0011453
8.43003e-08
0.00119348
0.000454261
0.000411611
0
1.09745e-06
0.000572735
0.000570527
0
0.000882784
3.63065e-08
5.44743e-08
0.00118878
0
0
0
0
0
1.5907e-05
0
1.1312e-05
0
0.0012279
0.00112263
0.00117954
9.51979e-10
7.16537e-10
7.28928e-10
4.87492e-09
4.47897e-06
3.10193e-05
6.65957e-06
0
0
0
3.58097e-06
3.64721e-09
0
2.54813e-06
0
4.92376e-06
0.000348751
0
4.27464e-07
0
6.05774e-10
1.56685e-05
2.7885e-09
5.04732e-07
1.13351e-05
1.43659e-08
1.23003e-05
2.07661e-09
0
0.000149717
0.000155694
9.49898e-09
0.000195268
0.000216419
0.000130063
0
0
0.000524997
5.5416e-05
1.29823e-08
0
0.000105968
4.6908e-06
2.45071e-07
6.74448e-06
7.27489e-09
0
8.91229e-07
0.000183635
0
0.000747979
7.60033e-06
4.62906e-06
0.000286774
2.57932e-09
1.33389e-06
0
1.38531e-06
0
2.43679e-09
6.5363e-07
4.20389e-09
0.000461186
0
0
0
0.00143365
0
8.43149e-06
0
3.18295e-06
0
0
0
0
0
0
0
0.000286767
1.28271e-06
2.04148e-10
7.87472e-07
0
0
1.2132e-05
0
1.27468e-05
1.10993e-05
1.17667e-06
2.14307e-06
0.000462454
1.29961e-10
0
0
1.50731e-06
0
0
0
2.83876e-06
3.82023e-05
0.000213659
0
4.28782e-07
5.44446e-07
0
0
0
0
0
0
6.4736e-06
0
7.16819e-10
0
0
7.06363e-10
0
2.21311e-07
0
1.36755e-06
0
3.59584e-10
0
0
2.32206e-06
3.15426e-06
4.27545e-06
4.98104e-06
1.68565e-10
2.93557e-10
0
0
0
5.43724e-10
3.26069e-06
0
1.15317e-10
0.000982336
1.0764e-07
0
0
1.24081e-05
1.60383e-08
0
0
4.59326e-05
0
0
0
0
0.000687558
3.05126e-06
0
0
4.30495e-06
0
4.13733e-06
0
0
5.56642e-06
0
3.36265e-05
0
0
1.24379e-05
6.62823e-09
0.00163322
1.76667e-05
6.71031e-09
4.69914e-09
1.38345e-05
0
0.000975787
0
1.01527e-07
0.000245153
2.00415e-07
0.000184557
8.16751e-08
3.05169e-07
1.21402e-07
4.19847e-07
0
0
0.000242066
2.96242e-09
0.000202453
4.73906e-09
1.17004e-05
6.25021e-09
4.41994e-09
0.00113443
7.34029e-09
6.03669e-09
5.09369e-08
5.72476e-08
7.55278e-08
3.02029e-05
0
0
2.91076e-05
0
0
0
3.59398e-07
4.73918e-09
0
3.9115e-07
3.08465e-07
6.09458e-07
0
1.72417e-05
5.10907e-09
1.33038e-05
0
1.69124e-09
8.66623e-05
0
0.000144824
0
3.08089e-08
2.92839e-08
0
0
1.87547e-05
0
4.67292e-08
1.70625e-05
0
3.81943e-05
5.00703e-05
0
0
0
0.000639982
0
5.58701e-09
2.03388e-06
0
4.20442e-06
0
0
0
0
1.82528e-06
0.000648872
0
0.00127477
3.16376e-09
0.00147079
0.00154616
0.00167662
1.4699e-05
1.2714e-05
1.34455e-05
0
0.000122714
0
0
0
1.27497e-05
0
0
0
0.00104872
0
0
0
0
0
0
2.29072e-05
0
0
0.00081479
4.71701e-10
0.00102203
3.88771e-06
6.48512e-09
5.42324e-09
0.000386951
0.000266173
3.15482e-08
0.000293671
1.46078e-05
9.89111e-06
0.000282987
0
0
0
2.4172e-09
8.03654e-06
9.1043e-06
0
0
1.31873e-09
0
1.02713e-09
4.06584e-09
7.22188e-10
7.99552e-07
4.30277e-07
5.35124e-10
0
0
0.000163577
0
0
0
0
0
0
0.000875699
0
0.000864154
1.61795e-10
4.80814e-08
5.31136e-08
7.39565e-08
6.33152e-05
6.44103e-05
7.58191e-05
2.63486e-07
0
1.90778e-08
1.16597e-05
3.95268e-05
1.3183e-05
0
0.000581525
1.60119e-05
1.76615e-05
0
3.73007e-08
1.74615e-05
2.31253e-05
5.91564e-08
0
0.000121386
1.18235e-05
9.27621e-06
5.70186e-05
1.35039e-06
6.75296e-10
7.30428e-07
2.89443e-10
5.48329e-07
7.5996e-07
0.000156044
0.000176621
0.000331598
0.000379914
0.000404897
2.27351e-06
1.31856e-06
0.000280155
0.000309237
0
5.74275e-10
0.000288713
0.000359827
5.8385e-07
6.68368e-07
5.36229e-07
0.000171174
0.000191562
4.6106e-06
0.000228029
2.30158e-07
2.75575e-07
3.70455e-07
0.000100625
0.00011345
0.000136619
0
0
1.83314e-08
6.60961e-05
6.08668e-05
7.98072e-05
3.06292e-05
6.77401e-05
8.87165e-05
8.87009e-05
0
9.9153e-08
5.88845e-10
1.41727e-07
1.81044e-07
0
5.00711e-05
5.87696e-05
7.21069e-05
0
0
0
0
1.15164e-06
8.3544e-07
0
4.39467e-05
3.79118e-10
0
0
2.11745e-08
0
0.000546621
8.27519e-05
7.99209e-09
1.65577e-09
1.91207e-09
1.40461e-09
2.10775e-09
1.8208e-09
1.52383e-09
6.08069e-09
0
1.08068e-08
1.31044e-08
2.39435e-07
3.71478e-07
4.19006e-10
7.74201e-10
0
0.000132236
0
1.30865e-07
1.69117e-07
8.6167e-05
2.37622e-09
2.28015e-09
0
1.10386e-10
0
5.94866e-05
2.52025e-10
0
6.44268e-06
0
1.02099e-05
0
0
8.86795e-06
0
1.40168e-07
0
3.05622e-06
2.84919e-07
1.86896e-10
0
1.87964e-07
0
1.04919e-09
2.64989e-06
9.31078e-10
1.05757e-09
4.27534e-07
9.64261e-10
1.11228e-05
1.3592e-05
0
9.31702e-06
5.42713e-05
0
0
0.00145879
2.52431e-05
2.91374e-06
0
5.43033e-06
0
9.49569e-10
6.04459e-06
6.54914e-06
5.21681e-06
8.23778e-10
7.32649e-10
0.000622712
6.39956e-06
5.01991e-06
0
5.16112e-07
6.60624e-07
0
1.06617e-10
0.000377003
5.60245e-06
0
0
2.38621e-05
0.000500604
1.04289e-08
7.26908e-06
8.24547e-06
2.34764e-08
8.767e-06
0
9.29985e-07
1.64268e-09
3.69755e-08
1.34721e-05
0
1.60659e-05
0.000749855
0
0
0.000142986
0
9.10593e-06
0
0
7.93323e-07
0
0
0
0
0
0
0
2.88023e-06
0
9.55755e-07
0
0
0
1.11933e-10
1.30333e-06
2.13588e-06
2.53667e-10
0
0
1.37339e-07
1.71014e-07
1.26047e-07
0.000222784
2.71507e-07
0
0
2.07715e-07
3.13114e-07
6.38885e-10
1.76323e-07
7.73096e-06
0
0
0
1.49737e-05
0
0
2.83945e-07
0
0
1.84845e-07
9.18433e-05
0.000121102
0
0
4.71899e-05
0
0
0
0.00106967
4.99206e-10
0
0
5.35599e-10
8.02191e-06
0
1.00263e-05
7.00207e-06
0.000460349
0
1.05486e-06
1.25005e-06
1.77552e-06
2.54434e-06
7.45777e-10
1.49335e-06
3.6791e-10
1.6855e-10
8.65453e-07
1.14936e-06
0
5.84513e-07
0
7.12577e-07
0.00027179
0
1.58523e-07
0
9.82455e-08
0
0
2.0785e-07
1.60571e-10
2.28e-08
1.41808e-06
0
0
0
0.000295412
0.000364403
0
6.5855e-05
0
0
0
1.27961e-07
0
0.000436749
0
0.000112479
0
0
4.83942e-07
9.797e-06
0.00121907
0.0013775
0.00112091
0.00154911
1.6513e-05
0.00103857
0.000638342
0
9.66501e-05
3.96348e-05
0
7.7438e-05
7.81616e-05
0
3.3358e-06
0
0
1.88228e-07
9.98679e-06
3.29986e-09
1.67717e-09
7.7852e-06
0.000731766
1.65052e-08
0
5.20188e-06
0
6.53434e-05
0.000710221
1.11607e-05
0.000871399
1.8453e-05
1.14022e-08
2.75903e-06
0.000880464
0.000433797
1.32574e-06
8.74802e-06
2.82338e-09
3.78125e-09
0.000349094
0
5.18883e-07
1.3476e-09
1.87325e-07
0
0.000196949
1.37126e-06
3.2068e-10
1.26998e-10
1.85045e-07
5.38802e-05
0
0.00155435
0
0
0
2.0593e-06
0
2.48107e-07
5.99678e-10
2.27309e-07
0.00150953
5.23096e-10
1.00933e-05
4.24255e-07
1.18017e-10
0
0
0
8.48091e-08
0
0
0
0
0.00121559
1.02589e-09
0.00180166
0.000127296
0.000262157
1.98732e-10
0
2.93052e-05
0.000453771
0
0.00166945
0.00053201
3.98074e-10
0
0
0
1.10307e-10
1.57796e-07
1.70369e-05
0.00147778
2.89313e-05
0
0
0
0
1.90916e-05
0.00160087
2.79989e-05
0
1.88468e-05
0.00165904
0
9.48755e-09
0.000142273
0
0.00153114
0.000434589
8.24729e-05
0
0
2.53506e-09
1.78443e-05
0
1.17564e-05
0
0.000793585
9.37593e-10
5.11259e-07
1.20593e-05
0
0
0
9.94475e-09
1.15819e-05
2.36398e-09
0
1.13768e-05
1.25526e-05
0
4.08095e-10
7.04273e-06
9.69651e-06
9.95962e-10
0
1.49467e-08
8.75463e-06
0
8.25833e-09
0
0
0
0
0
0
3.81924e-08
3.34138e-06
7.38698e-06
0
3.97508e-07
0
9.22225e-09
8.04767e-06
2.25459e-10
0
0.000437456
5.99079e-09
0
4.96154e-07
0
0.000409118
3.84036e-09
3.54488e-08
1.35063e-05
0
9.79517e-06
0
7.44836e-05
2.60593e-08
0
0
0.000521626
0
0
0
0.000371436
0
9.10717e-05
0
1.57963e-07
3.05e-07
0
0
0
0
1.3006e-05
0
0.000131678
8.35463e-05
4.06416e-10
1.41758e-07
0
1.75213e-07
1.76379e-07
4.57288e-05
5.72495e-08
1.2678e-07
0
0.000129603
2.25243e-07
4.23696e-08
5.77562e-05
6.55386e-08
0
3.52101e-07
6.7194e-05
0
9.81727e-08
0
0.000425649
4.89564e-05
0
0
6.36089e-05
7.96958e-05
0
0
1.89307e-08
1.10473e-07
0
3.98685e-05
2.59508e-08
1.07162e-07
0
0
0
4.74521e-10
4.88445e-05
0
3.86761e-08
0
0.000369788
1.45456e-06
0
7.95756e-08
0
1.48356e-06
6.27416e-05
0.00120235
1.00793e-06
0.000271772
0
0
9.37414e-09
1.35468e-09
0
0
0
0
0
4.63958e-05
0
0
2.30064e-05
1.65227e-05
0
5.17647e-05
8.63622e-08
2.91528e-05
3.53199e-05
1.67893e-05
0.000162232
4.34654e-06
0.00281853
3.8581e-08
1.69704e-05
0
0.0015281
0
0
5.25984e-06
3.27284e-10
5.32005e-10
2.25177e-05
0
1.44628e-05
1.64053e-10
2.99336e-10
0
0
1.16136e-05
0.000658421
1.5122e-10
7.19587e-06
0.000549713
1.62658e-07
0
0.000841894
4.80522e-08
0
1.73482e-05
7.48561e-05
8.86295e-06
3.6559e-07
2.40925e-05
3.40062e-06
0
9.37298e-06
0
0
3.20465e-08
3.23405e-06
0
0.00246643
3.22612e-09
1.98867e-07
9.30769e-09
0
0.000273968
4.11327e-07
0
0
3.3047e-09
0
0
0
0.000259958
4.64601e-09
2.21717e-07
0
0
1.19306e-07
0
0
0.000255749
0
1.42852e-05
0
0
0
1.27455e-07
2.30595e-07
0
0
0
1.27964e-06
1.45356e-06
1.61061e-09
4.91925e-06
8.04156e-06
2.69983e-09
0
0
1.77074e-06
1.15859e-06
0
0
0
2.33596e-06
9.74486e-10
0
4.26475e-10
0
0
0
0
0
1.64858e-07
3.14385e-09
0
1.29588e-09
1.23077e-05
3.05727e-09
2.12133e-09
0.000535687
6.69343e-05
3.04934e-09
0
1.16524e-07
0
7.23897e-05
0
7.07334e-10
1.1785e-05
1.74243e-09
0
4.4539e-05
0
0
2.02851e-06
1.2341e-09
0.000930847
4.57939e-08
0.00129996
0.000105672
2.39698e-09
0
0
0.000112394
0.000122708
6.13771e-08
0
4.86421e-07
0
0
0
0
3.58284e-09
3.7131e-06
4.06038e-06
7.4766e-09
2.74266e-06
0
0
0.000542944
0.000103761
5.01699e-06
0
4.95562e-05
5.77112e-09
0.00140398
0
3.31718e-06
1.91334e-06
0.000207686
3.48644e-05
0
2.0812e-06
0
0.000184792
1.17268e-06
0.000641212
1.37576e-05
0
0
0
2.34124e-10
2.59988e-06
7.08972e-08
5.29668e-10
0
0
0.00021596
0
0.000275621
6.33319e-05
5.16218e-05
5.69819e-05
0.000147015
3.73198e-10
0
0.00110039
0.000129727
0
0
5.59656e-06
8.44577e-06
2.03409e-10
0
0.00017913
6.28731e-09
2.26349e-06
0
0.00110353
0
0
4.63551e-10
0.000234407
0
0.000149385
1.66128e-06
1.75199e-09
0.00171797
4.49722e-07
1.60288e-06
0
0.000395721
2.91927e-05
2.30889e-05
0.000564381
7.48784e-05
3.43438e-06
9.25023e-07
0.00016223
0.000829101
0
0.00101911
0
2.78647e-09
0.000169257
0.000149891
0
0.00022825
0.00134727
1.45075e-09
3.7348e-06
3.66723e-06
2.02593e-09
0.000240194
0.000123883
1.6704e-08
1.35281e-07
3.7396e-05
0.00181322
0
5.40893e-05
0
3.53143e-10
0
4.45936e-05
3.36879e-10
0.000355793
0
7.83276e-06
0
1.87949e-06
2.44241e-05
9.29971e-08
5.60144e-08
2.04942e-05
4.3071e-08
0.000863392
2.31147e-05
0
0.000209717
2.69964e-06
0.000264595
2.43796e-09
6.48538e-06
1.14732e-05
0
0.00101976
5.34061e-06
1.20601e-10
3.30205e-09
0.000400377
0
5.1445e-05
0
0.000564865
0.000346161
3.69166e-09
7.39797e-07
0
0
1.49752e-05
2.19074e-05
0.00265311
0
6.79556e-06
3.91154e-05
4.03741e-05
0.00184987
4.10728e-08
0.000402012
0
0
2.60433e-06
5.13709e-10
9.35687e-06
3.0877e-10
0.000173666
0
3.36521e-09
0.000235522
7.18808e-06
0
3.44065e-05
5.41245e-07
0.000488631
0.000627805
0
1.34762e-06
4.63996e-10
8.34521e-06
0
9.88489e-06
3.40866e-09
0
2.96545e-08
7.31621e-08
0
0.0015062
0
3.69361e-09
6.81282e-06
0
0.000699145
0.00160962
9.90981e-06
0
5.08535e-09
0.00160522
0
0.00023271
0
0
4.65958e-05
0.000919698
5.5122e-09
1.09789e-05
0
0
1.51796e-10
2.21566e-08
1.57504e-05
0
8.91667e-06
1.31281e-05
1.54541e-09
0
0
2.6399e-10
0
0.000234217
0
0.00164772
0
0
0
0
0
0
2.41858e-07
3.86769e-05
0
0
0.00052937
7.19411e-10
0
4.44499e-10
0
5.57852e-05
0.000197568
1.15732e-09
2.57199e-06
0.00169757
0
1.46393e-10
0
1.33853e-06
0
0
4.38833e-07
0.000363329
0
3.63183e-05
1.09746e-10
6.15341e-06
9.63239e-05
0.000470495
0
3.61543e-06
0.00136701
6.14613e-05
5.6873e-06
1.87977e-09
0.00190297
0.000211809
3.93693e-06
1.42034e-07
0.000330289
2.2447e-10
3.52005e-10
1.62675e-06
7.45191e-09
4.48425e-06
0
2.1277e-08
3.94047e-06
4.62982e-08
1.02559e-05
0
0
5.77374e-07
2.2005e-05
3.45111e-08
1.07015e-08
1.5141e-05
2.02296e-05
0.00227989
5.03701e-05
3.08274e-09
1.82013e-06
0.000582016
0.000348943
6.7579e-06
0
0.000101022
2.22173e-09
7.0584e-06
0
2.16461e-06
0
0.000324084
1.60893e-10
7.35593e-06
1.49293e-10
0
1.83221e-05
0
2.09681e-06
0.000296135
0
5.35812e-09
0
4.47852e-05
5.80865e-10
0
0
0.00058349
3.49648e-05
4.29956e-05
0.000384026
4.87598e-05
0
0.000141974
0.000304463
0.00206675
4.77293e-05
2.48419e-05
0
6.01812e-09
2.17084e-06
0.000930445
6.46342e-08
2.06742e-05
3.57589e-05
0.00127698
0
0
1.21005e-05
4.4621e-09
2.50473e-09
7.8318e-06
7.90969e-05
0
9.61367e-08
0.00156505
0.00171415
3.07637e-05
3.61031e-05
0
0.00183116
0
4.42377e-05
0
0.00193107
0
0.000634599
0
0.00144138
2.17373e-05
3.82743e-09
1.41592e-10
6.09326e-07
3.8653e-07
1.23025e-09
6.20361e-07
0
0.000320477
8.295e-10
0
0
0.00163029
3.27315e-07
0
2.29851e-05
0
0
0
2.75767e-06
0
0
1.64682e-06
3.24459e-06
0
3.51723e-07
0
0
4.10436e-10
0
0
1.35252e-05
0
4.0976e-05
0
0
0
1.46926e-06
6.03508e-09
0
0
1.88224e-05
0
0.000107467
0
5.80073e-06
0.000142124
0
4.92157e-06
5.78194e-08
0
0
2.50137e-06
0.00205347
0
1.54629e-05
2.08439e-09
0
1.84418e-07
5.44177e-05
1.90513e-07
5.81878e-05
2.04933e-07
9.67739e-05
8.67773e-08
4.41243e-05
1.56222e-07
0
0
0
0.000152277
5.31793e-10
0
0.000110489
0
0.000806955
1.22666e-05
0.000357227
5.74658e-07
0
0
1.08221e-05
9.62673e-05
0
1.09845e-09
1.39922e-09
0.000141484
0.000709077
2.21079e-06
3.16649e-06
1.94604e-06
1.15431e-09
1.24294e-08
0
0
0.000454867
0
5.29144e-06
9.49254e-05
0
0
1.21633e-05
0.000251407
4.155e-05
0
0
0
0
4.23393e-08
0
4.37143e-08
4.57632e-09
0.000501132
0
8.74007e-05
0
6.23041e-08
0
0
0
0.0016314
4.34759e-05
0
2.49881e-08
0
1.73209e-08
0.000126867
0
0
3.92325e-07
3.06946e-07
8.64788e-10
3.71807e-07
0
7.66381e-06
1.04229e-06
4.89453e-06
0
0
2.90494e-06
4.52253e-05
0
0
0
0
3.12606e-10
0
2.52326e-06
0.000125205
0.000113641
0
4.53319e-05
5.49659e-07
4.12378e-07
0.000172984
0
1.68828e-07
0
2.343e-05
6.18259e-05
0
0
0
0
0.000154054
0.000136771
1.17217e-07
0
0
2.58412e-07
0
0
0.000128313
6.87271e-05
2.82105e-07
0
0
1.01797e-06
4.89489e-08
0.0010968
0.00106904
0.00126098
0
0
0
0
0
0
5.2468e-07
5.06487e-07
5.41443e-05
0.00155823
8.90334e-06
1.03131e-05
5.39178e-10
0
2.93136e-10
2.86936e-09
0
0
0.000807095
0
5.6095e-08
8.92294e-08
0.000930552
1.62188e-09
7.03578e-08
0.00014774
0
0
0
9.65309e-05
9.1402e-05
0
0
7.93621e-05
0
6.50007e-05
0.000335293
0.000118182
0.000111692
0
0
4.40922e-06
1.99908e-06
1.73383e-09
2.88838e-06
0
0
5.11765e-05
4.30525e-10
6.53656e-10
4.62523e-10
0.000277735
0
0.000290573
0.000327272
0
0
0
5.18668e-09
0
0
0.000621834
7.19924e-05
1.51209e-06
5.97524e-07
8.61223e-10
0
2.6154e-06
3.89832e-06
0
0.000399909
9.29943e-07
6.24482e-10
2.45142e-10
4.74471e-07
1.52302e-06
2.57937e-06
0
0
0
1.85274e-05
0
1.22712e-06
0
1.42635e-06
8.36377e-07
0
0
4.0482e-06
0
4.48044e-07
3.2183e-05
2.25142e-06
6.29188e-09
0
0.000553578
0.000623342
2.06343e-06
0.000990143
0.000668586
0
3.09484e-06
2.14516e-06
0.00100322
0.000439137
1.62336e-10
7.83387e-05
1.27745e-10
0
0
0.00057137
0
0.000454002
3.67584e-09
5.65236e-05
0
9.23028e-09
0
4.37532e-05
5.25703e-09
0
3.44009e-05
4.13052e-09
7.61744e-05
2.702e-08
0.000147965
4.78839e-08
2.1266e-08
0
0.000108854
1.83823e-08
5.75241e-09
7.79109e-05
7.48423e-09
0
3.63238e-05
4.2614e-09
3.00059e-05
4.6587e-10
4.17367e-05
3.27084e-09
9.23971e-08
0.00260591
1.44034e-09
0.000217071
0
0.000251544
0
1.09453e-09
0.000795935
1.49656e-09
0.000107615
1.51515e-09
0.000960856
0.000111953
1.35335e-07
7.05163e-08
8.97873e-08
0
1.66658e-08
4.72473e-06
0.00114161
5.39752e-09
1.36801e-05
0.000792619
0.000122973
3.37705e-06
0.000870032
4.09879e-08
0
0
0.000764103
0
0.000142374
0
0.00058988
6.91374e-06
1.0782e-05
0
0
0
0
1.81964e-06
3.78608e-08
5.76389e-06
3.98216e-06
0
0.00131898
1.89361e-05
1.59818e-05
1.7464e-07
0.000337607
6.98823e-08
1.58285e-05
0.00132565
2.51272e-05
1.7006e-05
1.09222e-10
6.54402e-06
0
2.78796e-05
0
0
0
0
0
0
0
1.48423e-05
0.000377065
0.00141487
1.18517e-05
0.000261369
1.36564e-07
0.000866818
0
0
2.09801e-05
0.000472735
9.14295e-08
0
0
2.16143e-07
1.7778e-05
2.84743e-07
0
0
0
0.000342259
0
5.60106e-10
4.30932e-10
0.0013136
0
0
0
0
0
0
4.08908e-10
1.04962e-05
1.32926e-09
1.83226e-09
0
0.000361737
0
0
2.70134e-06
0
5.52693e-06
1.64271e-09
1.2589e-06
5.04084e-09
4.83978e-06
1.68955e-10
0
0
0.00020519
0.000844928
0
1.36893e-05
0
3.03196e-06
5.42712e-09
3.09007e-06
2.92074e-09
0
0.000447621
6.20165e-06
1.90526e-09
2.21925e-10
5.91037e-09
0.000473972
0.000473843
0.000499434
1.3753e-10
7.40661e-09
0.000403965
0
1.76639e-09
0.000810153
0
0.000476025
0.000704011
4.2049e-09
0
3.46416e-06
8.93122e-10
4.41215e-10
2.1416e-06
3.25966e-06
2.18424e-06
0
4.20341e-05
0
0
2.16089e-05
0
6.57625e-05
5.10966e-09
0
0
0
7.5696e-08
0
0
0
0.000385169
0
6.13316e-09
0
9.35726e-09
6.97722e-09
0
3.33775e-05
0.00291349
1.80046e-05
0.00268363
1.52454e-05
3.58275e-08
0.001635
1.52186e-05
0
1.21042e-05
0
1.39525e-08
4.28382e-05
2.98675e-10
0
0
1.50614e-07
7.90266e-05
0
6.1569e-05
3.69169e-06
0
0.000432009
8.28947e-05
0.00110427
1.24243e-08
2.67994e-06
2.62897e-08
5.69797e-06
5.96874e-09
0.000623606
2.90166e-08
0.000343395
0
5.37403e-08
0
0
0
1.54759e-08
0.0001012
0
7.22806e-05
0
0
1.04901e-06
0
0
0.000825898
0
0.000104553
0
0
0.00101058
0
0.000278673
1.47083e-06
1.71927e-10
0.000786012
0
0.00115357
0
0
3.58204e-05
2.48649e-10
2.15595e-05
0
0.000220223
2.62714e-05
0
0
0
0
5.78768e-08
2.22473e-05
8.69625e-08
2.70896e-05
0
0
0
0
3.38666e-05
0
0
1.6057e-05
2.78643e-05
0
0
0
0
0
0
3.89182e-07
7.28237e-07
0
0
0
2.73544e-10
0
0
0
4.55551e-06
0
0
0
0.000966512
0
0
2.06768e-09
2.63843e-07
0
0
1.56457e-07
1.37614e-05
2.91833e-09
4.17434e-09
0
2.68164e-05
2.02673e-05
0
0
0
0
0.000312211
0.000408229
0.000343064
1.70764e-10
0
1.66393e-05
7.25756e-09
1.84392e-05
1.69043e-05
0.000103748
0.00183338
0.00109381
0.00133523
0.00125149
0
1.46481e-10
0.000203588
9.62535e-10
1.33598e-10
2.47047e-10
0.000569085
0.000762614
1.26353e-09
0.00064617
6.43409e-10
5.73762e-10
6.11861e-10
5.0016e-10
1.25065e-05
1.36623e-05
1.28839e-09
1.82618e-09
0.000345356
0
0
7.81771e-08
6.18074e-09
7.6872e-09
7.82204e-09
0.000539817
0.000628192
0.000515728
6.76345e-05
0
0
0.000384676
7.57952e-10
0.000351819
0.000300579
0
0
0
0
0
3.59103e-07
1.72751e-07
1.30584e-07
1.81335e-06
2.72914e-06
1.80548e-06
0
0