# vtk DataFile Version 2.0
Unstructured Grid by M++
ASCII
DATASET UNSTRUCTURED_GRID
POINTS 4072 float
  0.609375   0.843750 0
  0.562500   0.843750 0
  0.531250   0.843750 0
  0.875000   0.828125 0
  0.984375   0.828125 0
  0.953125   0.828125 0
  0.937500   0.828125 0
  0.843750   0.828125 0
  0.812500   0.828125 0
  0.781250   0.828125 0
  0.765625   0.828125 0
  0.734375   0.828125 0
  0.703125   0.828125 0
  0.671875   0.828125 0
  0.640625   0.828125 0
  0.609375   0.828125 0
  0.593750   0.828125 0
  0.562500   0.828125 0
  0.546875   0.828125 0
  0.531250   0.828125 0
  0.515625   0.828125 0
  0.968750   0.812500 0
  0.937500   0.812500 0
  0.921875   0.812500 0
  0.890625   0.812500 0
  0.859375   0.812500 0
  0.828125   0.812500 0
  0.796875   0.812500 0
  0.765625   0.812500 0
  0.750000   0.812500 0
  0.718750   0.812500 0
  0.687500   0.812500 0
  0.656250   0.812500 0
  0.625000   0.812500 0
  0.593750   0.812500 0
  0.578125   0.812500 0
  0.546875   0.812500 0
  0.531250   0.812500 0
  0.515625   0.812500 0
  0.984375   0.796875 0
  0.562500   0.015625 0
  0.953125   0.796875 0
  0.921875   0.796875 0
  0.906250   0.796875 0
  0.875000   0.796875 0
  0.843750   0.796875 0
  0.812500   0.796875 0
  0.781250   0.796875 0
  0.750000   0.796875 0
  0.734375   0.796875 0
  0.703125   0.796875 0
  0.671875   0.796875 0
  0.640625   0.796875 0
  0.609375   0.796875 0
  0.578125   0.796875 0
  0.562500   0.796875 0
  0.531250   0.796875 0
  0.515625   0.796875 0
  0.968750   0.781250 0
  0.546875   0.000000 0
  0.937500   0.781250 0
  0.906250   0.781250 0
  0.890625   0.781250 0
  0.859375   0.781250 0
  0.828125   0.781250 0
  0.796875   0.781250 0
  0.765625   0.781250 0
  0.734375   0.781250 0
  0.718750   0.781250 0
  0.687500   0.781250 0
  0.656250   0.781250 0
  0.625000   0.781250 0
  0.593750   0.781250 0
  0.562500   0.781250 0
  0.546875   0.781250 0
  0.515625   0.781250 0
  0.984375   0.765625 0
  0.953125   0.765625 0
  0.921875   0.765625 0
  0.890625   0.765625 0
  0.875000   0.765625 0
  0.843750   0.765625 0
  0.812500   0.765625 0
  0.781250   0.765625 0
  0.750000   0.765625 0
  0.718750   0.765625 0
  0.703125   0.765625 0
  0.671875   0.765625 0
  0.640625   0.765625 0
  0.609375   0.765625 0
  0.578125   0.765625 0
  0.593750   0.750000 0
  0.562500   0.765625 0
  0.546875   0.765625 0
  0.531250   0.765625 0
  0.562500   0.750000 0
  0.968750   0.750000 0
  0.937500   0.750000 0
  0.906250   0.750000 0
  0.875000   0.750000 0
  0.859375   0.750000 0
  0.828125   0.750000 0
  0.796875   0.750000 0
  0.765625   0.750000 0
  0.734375   0.750000 0
  0.703125   0.750000 0
  0.687500   0.750000 0
  0.671875   0.750000 0
  0.656250   0.750000 0
  0.625000   0.750000 0
  0.546875   0.750000 0
  0.531250   0.750000 0
  0.515625   0.750000 0
  0.562500   0.734375 0
  0.984375   0.734375 0
  0.953125   0.734375 0
  0.921875   0.734375 0
  0.890625   0.734375 0
  0.859375   0.734375 0
  0.843750   0.734375 0
  0.812500   0.734375 0
  0.781250   0.734375 0
  0.750000   0.734375 0
  0.718750   0.734375 0
  0.687500   0.734375 0
  0.671875   0.734375 0
  0.656250   0.734375 0
  0.640625   0.734375 0
  0.546875   0.734375 0
  0.531250   0.734375 0
  0.515625   0.734375 0
  0.562500   0.718750 0
  0.968750   0.718750 0
  0.937500   0.718750 0
  0.906250   0.718750 0
  0.875000   0.718750 0
  0.843750   0.718750 0
  0.796875   0.718750 0
  0.765625   0.718750 0
  0.734375   0.718750 0
  0.703125   0.718750 0
  0.687500   0.718750 0
  0.671875   0.718750 0
  0.656250   0.718750 0
  0.625000   0.718750 0
  0.546875   0.718750 0
  0.531250   0.718750 0
  0.515625   0.718750 0
  0.562500   0.703125 0
  0.953125   0.703125 0
  0.921875   0.703125 0
  0.890625   0.703125 0
  0.859375   0.703125 0
  0.828125   0.703125 0
  0.781250   0.703125 0
  0.750000   0.703125 0
  0.718750   0.703125 0
  0.687500   0.703125 0
  0.656250   0.703125 0
  0.546875   0.703125 0
  0.531250   0.703125 0
  0.515625   0.703125 0
  0.984375   0.687500 0
  0.937500   0.687500 0
  0.921875   0.687500 0
  0.906250   0.687500 0
  0.875000   0.687500 0
  0.843750   0.687500 0
  0.812500   0.687500 0
  0.765625   0.687500 0
  0.734375   0.687500 0
  0.703125   0.687500 0
  0.671875   0.687500 0
  0.640625   0.687500 0
  0.593750   0.687500 0
  0.562500   0.687500 0
  0.546875   0.687500 0
  0.531250   0.687500 0
  0.515625   0.687500 0
  0.968750   0.671875 0
  0.937500   0.671875 0
  0.921875   0.671875 0
  0.906250   0.671875 0
  0.890625   0.671875 0
  0.859375   0.671875 0
  0.828125   0.671875 0
  0.796875   0.671875 0
  0.765625   0.671875 0
  0.750000   0.671875 0
  0.718750   0.671875 0
  0.687500   0.671875 0
  0.656250   0.671875 0
  0.625000   0.671875 0
  0.593750   0.671875 0
  0.578125   0.671875 0
  0.546875   0.671875 0
  0.531250   0.671875 0
  0.515625   0.671875 0
  0.984375   0.656250 0
  0.953125   0.656250 0
  0.937500   0.656250 0
  0.921875   0.656250 0
  0.906250   0.656250 0
  0.875000   0.656250 0
  0.843750   0.656250 0
  0.812500   0.656250 0
  0.781250   0.656250 0
  0.750000   0.656250 0
  0.734375   0.656250 0
  0.703125   0.656250 0
  0.671875   0.656250 0
  0.640625   0.656250 0
  0.609375   0.656250 0
  0.578125   0.656250 0
  0.562500   0.656250 0
  0.531250   0.656250 0
  0.515625   0.656250 0
  0.968750   0.640625 0
  0.937500   0.640625 0
  0.906250   0.640625 0
  0.890625   0.640625 0
  0.859375   0.640625 0
  0.828125   0.640625 0
  0.796875   0.640625 0
  0.765625   0.640625 0
  0.734375   0.640625 0
  0.718750   0.640625 0
  0.687500   0.640625 0
  0.656250   0.640625 0
  0.625000   0.640625 0
  0.593750   0.640625 0
  0.562500   0.640625 0
  0.546875   0.640625 0
  0.515625   0.640625 0
  0.984375   0.625000 0
  0.953125   0.625000 0
  0.921875   0.625000 0
  0.890625   0.625000 0
  0.875000   0.625000 0
  0.843750   0.625000 0
  0.812500   0.625000 0
  0.781250   0.625000 0
  0.750000   0.625000 0
  0.734375   0.625000 0
  0.718750   0.625000 0
  0.703125   0.625000 0
  0.671875   0.625000 0
  0.640625   0.625000 0
  0.609375   0.625000 0
  0.578125   0.625000 0
  0.562500   0.625000 0
  0.546875   0.625000 0
  0.531250   0.625000 0
  0.968750   0.609375 0
  0.937500   0.609375 0
  0.906250   0.609375 0
  0.875000   0.609375 0
  0.859375   0.609375 0
  0.828125   0.609375 0
  0.796875   0.609375 0
  0.765625   0.609375 0
  0.750000   0.609375 0
  0.734375   0.609375 0
  0.718750   0.609375 0
  0.703125   0.609375 0
  0.687500   0.609375 0
  0.656250   0.609375 0
  0.625000   0.609375 0
  0.593750   0.609375 0
  0.562500   0.609375 0
  0.546875   0.609375 0
  0.531250   0.609375 0
  0.515625   0.609375 0
  0.984375   0.593750 0
  0.953125   0.593750 0
  0.921875   0.593750 0
  0.890625   0.593750 0
  0.859375   0.593750 0
  0.843750   0.593750 0
  0.812500   0.593750 0
  0.781250   0.593750 0
  0.750000   0.593750 0
  0.734375   0.593750 0
  0.718750   0.593750 0
  0.687500   0.593750 0
  0.671875   0.593750 0
  0.640625   0.593750 0
  0.609375   0.593750 0
  0.578125   0.593750 0
  0.562500   0.593750 0
  0.546875   0.593750 0
  0.531250   0.593750 0
  0.515625   0.593750 0
  0.968750   0.578125 0
  0.937500   0.578125 0
  0.906250   0.578125 0
  0.875000   0.578125 0
  0.890625   0.562500 0
  0.843750   0.578125 0
  0.828125   0.578125 0
  0.796875   0.578125 0
  0.765625   0.578125 0
  0.734375   0.578125 0
  0.703125   0.578125 0
  0.671875   0.578125 0
  0.656250   0.578125 0
  0.656250   0.562500 0
  0.625000   0.578125 0
  0.640625   0.562500 0
  0.593750   0.578125 0
  0.562500   0.578125 0
  0.546875   0.578125 0
  0.531250   0.578125 0
  0.515625   0.578125 0
  0.859375   0.562500 0
  0.828125   0.562500 0
  0.781250   0.562500 0
  0.750000   0.562500 0
  0.718750   0.562500 0
  0.687500   0.562500 0
  0.609375   0.562500 0
  0.578125   0.562500 0
  0.562500   0.562500 0
  0.546875   0.562500 0
  0.531250   0.562500 0
  0.515625   0.562500 0
  1.000000   0.812500 0
  0.578125   0.031250 0
  0.875000   0.546875 0
  0.625000   0.546875 0
  0.218750   0.000000 0
  0.640625   0.781250 0
  0.828125   0.093750 0
  0.031250   0.531250 0
  0.296875   0.328125 0
  0.296875   0.312500 0
  0.281250   0.312500 0
  0.765625   0.312500 0
  0.031250   0.859375 0
  0.093750   0.265625 0
  0.109375   0.250000 0
  0.187500   0.671875 0
  0.421875   0.640625 0
  0.031250   0.062500 0
  0.140625   0.125000 0
  0.562500   0.906250 0
  0.125000   0.437500 0
  0.203125   0.937500 0
  0.125000   0.421875 0
  0.140625   0.406250 0
  0.093750   0.437500 0
  0.109375   0.421875 0
  0.093750   0.421875 0
  0.109375   0.406250 0
  0.328125   0.125000 0
  0.750000   0.906250 0
  0.328125   0.109375 0
  0.750000   0.890625 0
  0.312500   0.125000 0
  0.734375   0.906250 0
  0.281250   0.343750 0
  0.265625   0.359375 0
  0.500000   0.796875 0
  0.078125   0.015625 0
  0.062500   0.015625 0
  0.484375   0.796875 0
  0.484375   0.781250 0
  0.062500   0.000000 0
  0.015625   0.250000 0
  0.062500   0.046875 0
  0.484375   0.828125 0
  0.484375   0.812500 0
  0.062500   0.031250 0
  0.281250   0.671875 0
  0.062500   0.234375 0
  0.328125   0.765625 0
  0.312500   0.750000 0
  0.015625   0.671875 0
  0.781250   0.187500 0
  0.015625   0.265625 0
  0.453125   0.250000 0
  0.453125   0.234375 0
  0.031250   0.265625 0
  0.046875   0.250000 0
  0.093750   0.015625 0
  0.265625   0.656250 0
  0.734375   0.281250 0
  0.156250   0.015625 0
  0.062500   0.265625 0
  0.046875   0.281250 0
  0.031250   0.281250 0
  0.343750   0.781250 0
  0.328125   0.781250 0
  0.265625   0.687500 0
  0.265625   0.703125 0
  0.156250   0.109375 0
  0.578125   0.890625 0
  0.484375   0.984375 0
  0.062500   0.203125 0
  0.328125   0.718750 0
  0.343750   0.734375 0
  0.343750   0.750000 0
  0.453125   0.500000 0
  0.437500   0.500000 0
  0.234375   0.093750 0
  0.171875   0.375000 0
  0.437500   0.531250 0
  0.468750   0.546875 0
  0.453125   0.546875 0
  0.187500   0.015625 0
  0.187500   0.000000 0
  0.609375   0.781250 0
[...]
CELL_DATA 7648
SCALARS scalar_value float 1
LOOKUP_TABLE default
3.91889e-06
4.33536e-06
5.2352e-06
3.80889e-06
0.00861415
0.00957761
0.0104143
0.00990373
4.11918e-06
5.00124e-06
5.4074e-06
0.00384854
0.00463832
0.00343
5.85132e-07
4.9128e-07
5.24038e-07
3.75758e-07
7.57585e-10
7.4142e-10
9.42393e-10
6.22916e-10
7.22046e-10
0
0
0
0
2.4269e-05
2.72346e-05
0
0
0
0
0
0
0
0
0
0
0
0
0
1.50974e-05
2.33324e-05
2.55529e-05
0.000395139
0.000483564
0.000576318
0
0.000559241
0.00310333
1.42748e-09
1.19736e-10
1.66816e-10
2.91624e-05
0
4.13111e-05
2.34894e-05
0
0
0
3.43384e-10
3.36282e-10
6.59086e-05
5.16322e-05
0
0
0
1.81807e-07
0
4.49883e-08
0
7.0211e-07
1.48252e-06
5.16976e-05
0
1.30229e-05
0
5.70567e-05
3.18231e-06
4.60193e-06
0
0
0
0.00120822
0
2.72477e-08
2.44849e-08
0.000146874
0
0
0
1.40459e-09
2.0672e-09
0
0
5.4929e-05
0
6.66657e-05
8.805e-05
2.23596e-06
4.25535e-10
2.61024e-06
5.21245e-06
9.42731e-10
5.67368e-08
5.06735e-07
0.00109101
0.00123334
0
0
2.10955e-06
2.15672e-06
0
2.39435e-09
0
3.28096e-09
1.63107e-09
0
0.00811377
0.00903913
0
0
6.70078e-09
0
0
0
0.000117753
0.000155793
9.91948e-05
0
0.0001035
0
0.00147977
9.83214e-08
0.00161683
1.41273e-05
2.12944e-10
0
0.000370705
6.9847e-05
0.000439103
0.0004839
0
0.00049101
0.000441136
0.0102441
1.66207e-09
0.00360598
8.15719e-05
8.12361e-05
1.27406e-10
1.7055e-10
2.19903e-10
0.00444425
0.00348142
0.00336448
0
0.000667746
1.54851e-10
0
7.8313e-10
9.24228e-10
4.52314e-07
0.000382165
0.000498022
0
0.000336976
2.92722e-10
0.0153614
0
0.000257489
0.000706448
0.00155651
1.73161e-06
7.95568e-09
0.0080371
0.000162413
1.29876e-07
0.000194166
0.000256553
1.93471e-07
0.00146087
1.96133e-05
0
2.24841e-09
0.00282436
0
0
3.62637e-05
0
4.74546e-05
0.000173173
0
0
0.000207513
0.000243108
0.000218311
0
0
0
0.00179618
2.65206e-09
0.00348731
0.00338347
2.69593e-09
1.99803e-10
0.00194459
0.00249538
0.00185668
0
0
0
0
0.000163894
4.03364e-09
0
0.0206241
0
1.38298e-05
3.04363e-05
0.00021261
0.000270623
0
0.000215823
0
4.23353e-06
1.24072e-05
0.000183318
0.000149734
0.00595697
0.00480398
8.67186e-05
4.92818e-08
0.00572279
0.00635664
0.00670687
0.00669229
6.32315e-05
0
5.3999e-05
0.0037282
3.65177e-08
9.15418e-05
0.000109763
0.00014938
1.64155e-07
0.000132723
0.000167415
0
0.000132616
3.39101e-05
1.99932e-10
2.76595e-10
2.74796e-10
1.35763e-05
1.87097e-08
0.000182122
0.000238416
5.99176e-10
7.72794e-10
7.90394e-10
0.000181294
0
0
0.000123002
0
0.000371859
0
7.56432e-05
0.00094139
8.55182e-10
0
0.00730093
0.00268724
0
0.0166457
0.000150058
2.19696e-08
2.74199e-08
0
7.19903e-06
9.26882e-05
0.0048565
5.82058e-08
0.000357784
0.00518455
0
0
0.000134254
0
0.00247625
9.06194e-06
0
3.22896e-08
3.28272e-08
0
4.10653e-08
0
4.40626e-05
2.31949e-09
8.64517e-08
0.00748417
8.9701e-05
3.99061e-10
3.23025e-10
2.95294e-10
3.17693e-09
0.000137582
8.97165e-09
6.16495e-09
0.000150379
0.00276566
0
0.000360887
2.03819e-06
3.26859e-09
0.000312807
2.48153e-09
1.08526e-06
1.68133e-09
2.66347e-10
5.19596e-06
4.14897e-05
9.63643e-05
2.55701e-08
4.84771e-09
4.54486e-05
6.69426e-05
1.11539e-08
7.30407e-05
1.08849e-10
0.000413578
3.04068e-06
0.00741135
2.74064e-06
0.00754804
0.00428744
0.00383504
1.30461e-09
1.97252e-05
0.00554846
0.00534276
0
0.00670797
1.21909e-06
1.79839e-06
0.00642694
0
0
0
0
7.65025e-10
0.000211506
0
0.000157999
0
0.00931771
0.0084273
0.00866383
3.33624e-08
2.55904e-08
2.64181e-08
1.87117e-07
7.22051e-05
0.000284228
9.75551e-05
0
0
0
6.29971e-05
1.41821e-07
0
6.39738e-05
0
0.000114939
0.00179158
0
5.12354e-06
3.09793e-10
2.33073e-08
0.000212875
6.81824e-08
6.34986e-06
0.000226172
4.45607e-07
0.00024216
8.258e-08
0
0.00148041
0.00145638
3.49224e-07
0.00205242
0.00212987
0.00147941
1.61997e-10
1.3061e-10
0.00485757
0.000437498
4.69594e-07
0
0.00132295
7.23783e-05
3.03657e-06
0.000101004
2.73009e-07
0
2.56152e-05
0.00210807
1.21492e-10
0.00401288
8.97328e-05
5.45366e-05
0.00166001
9.88603e-08
1.51639e-05
0
1.53796e-05
0
9.54923e-08
1.9265e-05
1.62102e-07
0.0030113
3.30336e-10
6.09196e-10
5.40166e-10
0.0104617
5.52593e-10
0.000104543
0
5.17345e-05
3.46451e-09
0
0
0
0
0
0
0.00316258
2.67509e-05
7.5443e-09
1.74576e-05
5.203e-10
4.41061e-10
0.000163922
5.92791e-10
0.000169866
0.000145994
2.20723e-05
3.75878e-05
0.00525987
4.45112e-09
0
2.95449e-09
2.72318e-05
0
0
0
3.62332e-05
0.000341469
0.0024128
2.09726e-09
9.86288e-06
1.05186e-05
0
0
0
0
0
0
0.000129466
0
2.92294e-08
0
0
2.85758e-08
4.98741e-10
4.83877e-06
0
2.92231e-05
0
1.49826e-08
0
0
5.17385e-05
6.96419e-05
9.27544e-05
7.7718e-05
5.72677e-09
9.60706e-09
0
3.71544e-09
0
2.23002e-08
3.94842e-05
0
3.68623e-09
0.00753893
2.57353e-06
0
0
0.000154058
4.93474e-07
0
0
0.000684549
0
0
0
0
0.00596116
4.23719e-05
0
0
5.86472e-05
0
9.71843e-05
0
0
0.000124575
0
0.000518742
0
0
0.000120729
2.14424e-07
0.0145372
0.000281194
2.1717e-07
1.52488e-07
0.000218502
0
0.00616938
0
1.44435e-06
0.0032545
2.74091e-06
0.00251667
1.14074e-06
4.18994e-06
1.69503e-06
5.48158e-06
0
0
0.00256087
1.11909e-07
0.00113474
1.5601e-07
0.000110396
2.02601e-07
1.44805e-07
0.0111825
2.35124e-07
1.95927e-07
1.51336e-06
1.65962e-06
2.20517e-06
0.000553376
0
0
0.000523726
0
0
0
7.40286e-06
1.46712e-07
1.11788e-09
8.28261e-06
6.80823e-06
1.23612e-05
4.29033e-10
0.00016068
1.66936e-07
0.000216211
0
6.77364e-08
0.00141543
0
0.000877224
1.10569e-09
9.3341e-07
8.92218e-07
0
0
0.000171607
0
1.55935e-06
0.000310636
0
0.000702169
0.00088726
0
0
0
0.00740604
0
2.02913e-07
5.2363e-05
0
9.98927e-05
0
0
0
0
4.88934e-05
0.00308955
0
0.00745783
1.23857e-07
0.0123468
0.0127399
0.0136124
0.000202315
0.000175924
0.000187507
5.75484e-10
0.00118826
4.78924e-10
0
0
0.000179799
0
0
0
0.00504237
0
0
0
0
0
0
0.000220142
0
0
0.00871566
1.9257e-08
0.0103715
7.97622e-05
2.41396e-07
2.04274e-07
0.00316946
0.00221803
9.79324e-07
0.00392666
0.000192312
0.000203774
0.00231263
0
0
0
5.43284e-08
0.000153677
0.000176389
0
0
5.2941e-08
0
4.11763e-08
1.54998e-07
2.82448e-08
1.49954e-05
1.29723e-05
2.11162e-08
0
4.07122e-10
0.00210595
0
4.51532e-10
0
0
0
0
0.00774608
0
0.00740124
4.36574e-09
1.60292e-06
1.75778e-06
2.40638e-06
0.000858897
0.00089273
0.000993854
7.58078e-06
0
6.21135e-07
0.00024963
0.000713584
0.000264212
0
0.00238398
0.000316273
0.000350892
0
1.12532e-06
0.000340086
0.00044574
1.77359e-06
3.61642e-10
0.00130492
0.00017451
0.000137873
0.000440217
3.10307e-05
2.57068e-08
1.77587e-05
1.11175e-08
1.30943e-05
1.75409e-05
0.0020938
0.00237084
0.00433111
0.00486058
0.00514525
4.8259e-05
2.91506e-05
0.00358489
0.00394895
3.20754e-09
2.0627e-08
0.00374387
0.00449338
1.44498e-05
1.6221e-05
1.31977e-05
0.00237306
0.00264737
0.000106759
0.00307476
6.27367e-06
7.4656e-06
9.70605e-06
0.00151265
0.00170247
0.00200024
1.80672e-10
1.10617e-10
6.47335e-07
0.0010728
0.00100384
0.00126724
0.000266078
0.00111759
0.00142823
0.00140687
0
2.8574e-06
2.42548e-08
3.96411e-06
5.70256e-06
4.56143e-10
0.000785889
0.000923292
0.00110912
0
0
0
0
1.4259e-05
1.02207e-05
0
0.000392398
1.15016e-08
0
0
3.167e-07
0
0.00253994
0.00137038
2.05519e-07
6.12193e-08
6.92239e-08
5.19784e-08
8.35429e-08
7.24128e-08
6.10082e-08
1.57006e-07
0
2.48851e-07
2.70972e-07
6.93671e-06
1.00974e-05
1.63537e-08
3.00543e-08
0
0.000832414
0
4.08204e-06
5.22122e-06
0.000799225
7.43063e-08
6.85799e-08
0
4.47049e-09
4.42797e-10
0.000459237
1.00308e-08
1.98958e-10
7.35856e-05
0
0.000116446
0
0
9.77334e-05
1.9659e-09
4.33363e-06
0
7.47458e-05
8.01046e-06
7.29837e-09
2.8018e-09
5.51809e-06
0
3.97741e-08
3.42877e-05
3.51868e-08
3.96941e-08
1.02823e-05
3.9035e-08
0.000215577
0.000251725
0
8.95764e-05
0.000411529
0
0
0.0119108
0.000307209
6.50755e-05
0
8.86618e-05
0
2.83279e-08
0.000127531
0.000136452
0.000108789
3.36372e-08
3.00345e-08
0.00416203
8.14121e-05
6.44195e-05
0
1.53498e-05
1.93341e-05
0
3.79145e-09
0.00456009
6.81133e-05
0
4.17316e-10
0.000466309
0.00218838
3.60854e-07
0.000164991
0.000185723
7.87555e-07
0.000193427
0
2.17703e-05
6.56918e-08
1.13228e-06
0.000275489
1.10071e-10
0.000323863
0.00343771
0
0
0.00121536
1.55842e-10
0.0001901
8.0606e-10
1.96904e-09
1.5407e-05
1.8141e-09
0
0
0
1.6057e-09
8.80937e-10
0
6.05477e-05
0
2.18409e-05
5.77389e-10
6.89664e-10
0
4.07888e-09
2.4961e-05
4.01191e-05
9.11853e-09
0
0
4.36854e-06
5.39808e-06
4.02824e-06
0.00256361
6.88357e-06
0
0
5.59003e-06
8.04322e-06
2.61598e-08
4.68371e-06
8.23119e-05
0
0
2.07224e-10
0.000146643
2.32439e-10
1.38698e-10
7.78195e-06
3.70886e-09
1.50197e-09
5.24005e-06
0.00121054
0.00158313
0
1.53267e-10
0.000850019
1.96833e-10
1.87767e-10
2.90091e-10
0.00903829
1.14858e-08
1.72881e-10
0
1.4441e-08
0.000112741
2.54998e-10
0.000138379
9.60376e-05
0.00449932
0
2.09557e-05
2.51404e-05
3.44688e-05
5.31238e-05
2.76388e-08
3.23871e-05
1.37617e-08
6.36635e-09
1.95511e-05
1.99717e-05
5.75172e-10
1.25079e-05
2.50026e-09
1.47137e-05
0.00294789
0
2.12518e-06
0
1.34592e-06
0
1.91529e-10
3.00453e-06
6.34184e-09
6.98069e-07
3.29302e-05
0
0
0
0.00313299
0.00385154
0
0.000478664
0
0
0
3.82536e-06
1.12038e-09
0.00192764
0
0.0014505
7.30701e-10
0
1.17991e-05
0.0001252
0.0116962
0.0087872
0.0109636
0.0139337
0.00029145
0.0104739
0.00310352
2.81039e-09
0.00156272
0.000455534
1.1515e-09
0.0012991
0.00129974
0
3.67888e-05
1.69713e-09
0
5.63257e-06
0.000166586
1.09584e-07
5.63651e-08
0.000128497
0.00815766
4.8947e-07
0
9.05271e-05
2.10991e-09
0.0011181
0.00783487
0.000206486
0.00922368
0.000331224
3.49757e-07
2.92082e-05
0.00921811
0.00230329
1.57787e-05
0.00016485
9.79707e-08
1.42396e-07
0.0019032
6.17236e-10
1.55234e-05
5.32472e-08
5.39978e-06
2.04873e-09
0.00275203
2.0753e-05
1.24703e-08
5.02273e-09
5.63756e-06
0.000543277
0
0.0111902
0
0
0
2.27096e-05
0
7.71207e-06
2.44069e-08
5.67249e-06
0.0117353
1.63835e-08
0.000148384
1.08935e-05
4.58852e-09
0
0
0
2.38976e-06
0
0
0
3.06745e-10
0.0100414
3.95725e-08
0.0155827
0.00149518
0.00295807
7.18403e-09
6.39877e-10
0.000564978
0.00211512
6.17329e-10
0.0126104
0.00509395
1.09523e-08
2.80055e-10
0
2.95072e-10
4.61236e-09
4.97464e-06
0.000348739
0.0111353
0.000559164
1.58684e-10
2.21685e-10
2.79265e-10
1.83681e-10
0.000238209
0.0118995
0.00023453
0
0.00024732
0.0131023
0
3.00121e-07
0.00202056
0
0.0122657
0.00195477
0.000566367
0
0
9.97195e-08
0.000227162
0
0.000171307
0
0.00527491
3.82035e-08
7.40603e-06
0.000174583
0
0
1.21715e-10
3.60896e-07
0.000176097
7.68683e-08
0
0.000163759
0.000235737
0
1.35902e-08
0.000108661
0.00014787
3.26628e-08
0
5.34727e-07
0.000125764
0
2.5992e-07
0
1.29926e-10
2.14914e-10
0
1.02502e-09
0
1.29176e-06
8.37683e-05
0.000111395
0
1.20842e-05
0
3.39551e-07
0.000103867
5.76443e-09
0
0.00517208
1.70263e-07
0
1.48991e-05
0
0.00328196
1.48222e-07
1.14454e-06
0.000286603
2.99189e-10
0.000141929
2.67991e-10
0.000776842
7.81539e-07
0
0
0.00399255
0
0
0
0.00289518
0
0.00127826
7.76952e-10
4.06135e-06
7.57711e-06
1.737e-09
6.91596e-10
0
0
0.000120512
3.67674e-09
0.00190138
0.00119421
1.66784e-08
3.7144e-06
1.10969e-09
4.89377e-06
5.56149e-06
0.00070549
1.62094e-06
3.71936e-06
8.40904e-10
0.00118702
7.03038e-06
1.17809e-06
0.000842318
1.77289e-06
0
1.07712e-05
0.000982469
0
2.63974e-06
0
0.0041041
0.000400445
0
6.77192e-10
0.000910329
0.00111404
6.34346e-10
9.54312e-10
5.38382e-07
2.85186e-06
0
0.000591728
7.33878e-07
3.0519e-06
4.79769e-10
2.18117e-09
0
1.82129e-08
0.00039199
0
1.0912e-06
0
0.00376696
3.96539e-05
0
2.26973e-06
0
4.00167e-05
0.000464468
0.00636403
2.77421e-05
0.00155399
0
5.42815e-10
2.15404e-07
5.43508e-08
0
0
0
0
6.44329e-10
0.000793044
0
0
0.000434905
0.000315973
0
0.000886284
2.59593e-06
0.000554857
0.000624463
0.000196838
0.00175783
8.12499e-05
0.0220264
1.19443e-06
0.000344382
0
0.0138061
3.85066e-09
0
0.0001208
1.38403e-08
2.20773e-08
0.000274197
1.68274e-10
0.000181902
7.23317e-09
1.28016e-08
0
0
0.000246447
0.00552738
4.7578e-09
0.000104164
0.00294226
3.8707e-06
0
0.00698048
1.28815e-06
0
0.000231742
0.000527341
0.000193422
1.11518e-05
0.000204906
4.51613e-05
0
0.000199733
1.23592e-10
0
5.69805e-07
3.37056e-05
0
0.0199025
8.64162e-08
4.58052e-06
3.30759e-07
0
0.00143389
1.09535e-05
0
0
1.11875e-07
0
0
0
0.00206946
1.78668e-07
6.57846e-06
0
0
3.67751e-06
0
0
0.00141888
0
0.000165503
0
0
6.2133e-10
3.46861e-06
6.09797e-06
1.40949e-09
0
0
3.45011e-05
3.81532e-05
5.92417e-08
0.000100336
0.000160602
9.53056e-08
0
0
2.34101e-05
1.30546e-05
0
0
0
3.16516e-05
3.709e-08
2.6701e-09
1.63525e-08
0
0
0
0
0
3.76556e-06
5.55355e-08
0
4.02587e-08
0.000180208
9.58464e-08
7.38887e-08
0.00469433
0.00101277
8.82159e-08
0
1.78894e-06
0
0.0010776
0
2.00829e-08
0.000168047
4.93413e-08
0
0.000648504
1.4323e-10
0
4.62897e-05
4.70251e-08
0.00691487
1.52455e-06
0.0081109
0.00123713
8.40547e-08
4.64499e-10
1.2614e-09
0.00154097
0.00165015
1.71521e-06
2.80649e-10
1.14384e-05
2.85994e-09
0
0
0
1.34172e-07
9.0007e-05
9.85802e-05
2.70164e-07
3.98373e-05
8.31105e-10
0
0.00627349
0.00114271
9.80945e-05
0
0.000752577
1.86032e-07
0.0131017
0
7.95397e-05
2.49632e-05
0.00293975
0.000289662
0
4.0808e-05
8.73793e-10
0.00267451
3.23031e-05
0.00359042
0.000137695
0
0
0
8.0516e-09
4.33597e-05
9.50585e-07
2.02129e-08
0
0
0.00118387
1.29817e-10
0.00209168
0.00109334
0.000920825
0.000973023
0.00220717
1.46755e-08
0
0.0108846
0.00198052
0
2.46656e-09
7.72593e-05
0.000117351
5.8217e-09
0
0.00259299
2.21998e-07
5.84611e-05
0
0.00684108
0
0
1.71305e-08
0.00319182
0
0.0022311
4.3431e-05
6.75e-08
0.0137554
1.16113e-05
3.67032e-05
0
0.0049798
0.000552962
0.000456461
0.00246672
0.00123224
8.08259e-05
1.20451e-05
0.0024007
0.00609702
0
0.0100234
0
9.74719e-08
0.00248248
0.00196882
7.0583e-10
0.00318456
0.0125266
5.55569e-08
8.81995e-05
8.794e-05
7.73885e-08
0.00331953
0.00115409
5.85128e-07
4.31185e-06
0.000607672
0.0158405
0
0.00083578
0
1.36275e-08
0
0.00036342
1.22036e-08
0.00267411
0
0.000168949
0
3.47548e-05
0.000482393
2.89652e-06
1.74091e-06
0.000411454
1.44049e-06
0.00418456
0.000267128
0
0.00295916
6.65227e-05
0.00144024
9.304e-08
9.93676e-05
0.000172589
0
0.0101909
8.1044e-05
4.04357e-09
1.26518e-07
0.00231099
0
0.000406196
1.29829e-09
0.0023392
0.0030341
1.24941e-07
1.00954e-05
1.06304e-09
3.82175e-09
0.000202129
0.000279521
0.0210463
0
0.000152274
0.000403617
0.000646183
0.0160585
1.24804e-06
0.00512869
1.86159e-09
6.28324e-10
6.06174e-05
2.11197e-08
0.000124223
7.78316e-09
0.00254201
0
1.31452e-07
0.00325092
0.000157121
0
0.000303405
1.60915e-05
0.00296075
0.00440072
0
1.7377e-05
1.76612e-08
0.000171255
0
0.000188907
1.16981e-07
1.62339e-10
8.23568e-07
1.94441e-06
3.52716e-10
0.0134668
1.29647e-10
1.25852e-07
0.00014598
0
0.0030336
0.0143221
0.000103558
0
1.67119e-07
0.0142206
2.69377e-10
0.00215398
1.33137e-10
1.49747e-10
0.000504671
0.00597142
1.80787e-07
0.000132029
0
0
5.57186e-09
6.73353e-07
0.000188685
0
0.000108717
0.000160021
2.93845e-08
0
9.30559e-10
1.09231e-08
1.31854e-09
0.00258434
3.01546e-10
0.0147165
1.66594e-10
0
0
7.43732e-10
0
0
6.67891e-06
0.000718763
2.84485e-09
0
0.00541977
2.16071e-08
9.87623e-10
1.58267e-08
0
0.000607874
0.00248516
4.37275e-08
5.6582e-05
0.0132136
3.44591e-09
5.8207e-09
0
1.99795e-05
3.41719e-10
1.54062e-10
6.56192e-06
0.00312388
3.31215e-09
0.000349094
3.16651e-09
8.11811e-05
0.000966606
0.00579095
0
4.73967e-05
0.0127923
0.000633364
0.000117098
6.88709e-08
0.0164707
0.00277689
8.76203e-05
4.51659e-06
0.00369594
7.41454e-09
1.29146e-08
1.99321e-05
2.71793e-07
9.26929e-05
0
7.35235e-07
9.69305e-05
1.5375e-06
0.000201452
0
0
8.24752e-06
0.000408415
1.02507e-06
3.342e-07
0.000284778
0.000231858
0.0187884
0.000847757
1.17552e-07
4.79147e-05
0.00660335
0.0045451
8.46943e-05
0
0.000959069
7.95929e-08
0.000139272
0
4.7553e-05
1.21059e-09
0.00421773
5.97224e-09
9.96711e-05
4.23741e-09
0
0.000160689
4.20217e-10
3.47487e-05
0.0039509
3.61553e-10
1.60378e-07
1.48312e-09
0.00080144
1.99652e-08
0
2.19422e-10
0.00242925
0.000657411
0.000780001
0.00346556
0.000382968
3.52323e-09
0.00215267
0.00259913
0.0175162
0.000789915
0.000432025
0
2.23787e-07
5.67548e-05
0.00503213
2.12743e-06
0.000358671
0.000669082
0.0121746
0
0
0.000220589
1.48592e-07
8.66284e-08
0.000145074
0.000780326
4.19722e-10
3.10804e-06
0.0141733
0.0152144
0.000525629
0.000618122
0
0.0159574
1.35176e-09
0.000720062
0
0.0166584
0
0.00288345
0
0.011424
0.000191038
1.11511e-07
5.43665e-09
1.47015e-05
1.17719e-05
4.91971e-08
1.37587e-05
0
0.00268419
3.37571e-08
0
0
0.0119355
7.52056e-06
0
0.000405542
1.31831e-10
0
0
6.96184e-05
0
0
2.24879e-05
4.45042e-05
1.12852e-09
8.86022e-06
2.36943e-09
0
1.69049e-08
6.4116e-10
1.01433e-09
0.000122658
2.33133e-10
0.000677157
3.69544e-10
0
0
3.26738e-05
1.40391e-07
3.73558e-10
0
0.00034826
0
0.000686919
0
0.000136355
0.000847357
0
0.000117339
1.90996e-06
0
0
3.3466e-05
0.0174024
0
0.000200254
4.36057e-08
0
5.79918e-06
0.000868394
5.98699e-06
0.000943927
6.41827e-06
0.000864025
1.16483e-06
0.000741477
4.94192e-06
0
0
1.84957e-09
0.00226623
1.52868e-08
1.48537e-09
0.00174532
0
0.00647899
0.000254425
0.00460446
7.1176e-06
0
0
0.000152849
0.000634359
0
4.262e-08
5.37286e-08
0.00169151
0.00534141
3.09211e-05
5.05661e-05
4.94101e-05
4.45123e-08
4.48034e-07
0
0
0.00375273
0
7.39194e-05
0.000631236
1.17549e-10
0
0.000128646
0.00344034
0.0005986
1.18267e-10
1.94851e-10
1.52613e-10
1.71651e-10
1.2638e-06
1.04789e-10
1.27642e-06
1.52414e-07
0.00612905
0
0.00109835
1.35595e-10
1.82591e-06
1.74769e-10
0
2.06931e-10
0.0146535
0.00079484
2.25147e-10
8.63766e-07
4.67906e-10
6.14799e-07
0.00159447
0
6.46259e-10
9.99144e-06
9.45407e-06
3.48945e-08
8.77441e-06
0
0.000171854
1.30984e-05
7.05875e-05
2.0381e-09
9.10518e-10
4.16512e-05
0.000814598
1.55632e-09
0
0
6.03138e-10
1.04906e-08
1.50844e-09
4.08404e-05
0.00153735
0.00137064
0
0.000355141
7.33817e-06
5.7742e-06
0.00251216
0
5.14061e-06
0
0.000210193
0.000919395
5.44165e-10
0
0
0
0.00170236
0.0015246
3.23842e-06
0
0
6.91864e-06
1.92105e-09
1.6339e-09
0.00176273
0.000509181
8.72067e-06
0
2.24894e-10
1.42019e-05
7.03992e-07
0.0107336
0.0077652
0.0119502
0
0
0
0
1.10126e-10
0
6.19474e-06
6.11334e-06
0.000476023
0.0131723
0.000140052
0.000129718
1.18652e-08
0
1.10056e-08
1.08051e-07
1.51226e-09
3.1181e-10
0.00359951
0
1.79834e-06
2.81359e-06
0.00429469
6.36255e-08
2.26116e-06
0.0018877
0
0
0
0.00116301
0.00117583
3.18686e-10
0
0.00100492
0
0.000857178
0.00362453
0.00135168
0.00130612
0
0
0.00010542
2.92443e-05
6.86796e-08
5.6771e-05
0
0
0.000412516
1.7027e-08
2.54074e-08
1.81377e-08
0.00252659
0
0.0025956
0.0030075
2.3542e-09
0
0
1.9762e-07
0
0
0.00533497
0.00052123
2.65839e-05
1.75152e-05
3.36478e-08
7.66199e-10
3.93422e-05
5.90842e-05
1.74237e-09
0.00506629
2.24106e-05
2.3898e-08
9.48906e-09
1.22823e-05
2.1065e-05
4.08198e-05
3.25245e-10
5.56687e-10
0
0.000193244
0
1.63646e-05
4.23409e-10
2.03601e-05
1.1042e-05
1.07312e-09
2.05191e-09
5.04896e-05
0
1.3534e-05
0.00027603
2.56064e-05
2.35279e-07
0
0.00323029
0.00358403
2.59949e-05
0.00828796
0.00396293
0
3.3064e-05
2.30871e-05
0.0086684
0.00228471
6.67499e-09
0.00130219
4.98129e-09
1.59878e-09
2.63824e-09
0.00572055
2.22919e-09
0.00490454
7.22321e-08
0.000803253
2.78684e-10
1.68962e-07
0
0.000483893
1.03983e-07
2.51022e-09
0.000394191
8.68775e-08
0.000765797
4.24732e-07
0.00213084
7.19433e-07
3.46493e-07
3.57767e-10
0.00160957
2.91296e-07
1.22306e-07
0.0011792
1.25429e-07
0
0.000385562
7.5504e-08
0.000328323
1.92997e-08
0.000443904
6.07276e-08
1.39936e-06
0.0206835
5.79054e-08
0.00184841
0
0.00219111
0
4.4364e-08
0.00476583
6.01285e-08
0.000947031
6.09107e-08
0.00578338
0.00100401
1.77656e-06
9.65461e-07
2.45298e-06
0
5.78963e-07
0.0001136
0.00574903
1.76676e-07
0.000230284
0.00672046
0.000792156
8.37276e-05
0.00412974
1.34857e-06
0
4.68592e-10
0.00376412
0
0.00151412
2.04402e-10
0.0069679
7.11458e-05
0.00011027
0
2.57124e-10
0
5.18479e-10
4.85555e-05
1.26405e-06
0.000135581
9.76597e-05
0
0.00807538
0.000386275
0.000332811
5.50696e-06
0.00176934
2.22985e-06
0.000330363
0.00954928
0.00022194
0.000210277
3.38951e-09
9.25802e-05
1.93656e-09
0.00025089
1.09833e-09
0
0
0
0
2.49943e-10
0
0.000308853
0.00181679
0.0108713
0.000255675
0.00133342
4.34571e-06
0.00445927
0
2.91905e-09
0.000416239
0.00215916
1.20216e-06
0
0
6.75761e-06
0.000158989
8.79947e-06
0
0
7.95892e-10
0.00356446
0
1.8913e-08
1.51148e-08
0.00896407
1.18312e-09
1.02556e-09
0
0
3.79977e-09
0
1.0547e-08
0.000143098