# vtk DataFile Version 2.0
Unstructured Grid by M++
ASCII
DATASET UNSTRUCTURED_GRID
POINTS 4072 float
  0.609375   0.843750 0
  0.562500   0.843750 0
  0.531250   0.843750 0
  0.875000   0.828125 0
  0.984375   0.828125 0
  0.953125   0.828125 0
  0.937500   0.828125 0
  0.843750   0.828125 0
  0.812500   0.828125 0
  0.781250   0.828125 0
  0.765625   0.828125 0
  0.734375   0.828125 0
  0.703125   0.828125 0
  0.671875   0.828125 0
  0.640625   0.828125 0
  0.609375   0.828125 0
  0.593750   0.828125 0
  0.562500   0.828125 0
  0.546875   0.828125 0
  0.531250   0.828125 0
  0.515625   0.828125 0
  0.968750   0.812500 0
  0.937500   0.812500 0
  0.921875   0.812500 0
  0.890625   0.812500 0
  0.859375   0.812500 0
  0.828125   0.812500 0
  0.796875   0.812500 0
  0.765625   0.812500 0
  0.750000   0.812500 0
  0.718750   0.812500 0
  0.687500   0.812500 0
  0.656250   0.812500 0
  0.625000   0.812500 0
  0.593750   0.812500 0
  0.578125   0.812500 0
  0.546875   0.812500 0
  0.531250   0.812500 0
  0.515625   0.812500 0
  0.984375   0.796875 0
  0.562500   0.015625 0
  0.953125   0.796875 0
  0.921875   0.796875 0
  0.906250   0.796875 0
  0.875000   0.796875 0
  0.843750   0.796875 0
  0.812500   0.796875 0
  0.781250   0.796875 0
  0.750000   0.796875 0
  0.734375   0.796875 0
  0.703125   0.796875 0
  0.671875   0.796875 0
  0.640625   0.796875 0
  0.609375   0.796875 0
  0.578125   0.796875 0
  0.562500   0.796875 0
  0.531250   0.796875 0
  0.515625   0.796875 0
  0.968750   0.781250 0
  0.546875   0.000000 0
  0.937500   0.781250 0
  0.906250   0.781250 0
  0.890625   0.781250 0
  0.859375   0.781250 0
  0.828125   0.781250 0
  0.796875   0.781250 0
  0.765625   0.781250 0
  0.734375   0.781250 0
  0.718750   0.781250 0
  0.687500   0.781250 0
  0.656250   0.781250 0
  0.625000   0.781250 0
  0.593750   0.781250 0
  0.562500   0.781250 0
  0.546875   0.781250 0
  0.515625   0.781250 0
  0.984375   0.765625 0
  0.953125   0.765625 0
  0.921875   0.765625 0
  0.890625   0.765625 0
  0.875000   0.765625 0
  0.843750   0.765625 0
  0.812500   0.765625 0
  0.781250   0.765625 0
  0.750000   0.765625 0
  0.718750   0.765625 0
  0.703125   0.765625 0
  0.671875   0.765625 0
  0.640625   0.765625 0
  0.609375   0.765625 0
  0.578125   0.765625 0
  0.593750   0.750000 0
  0.562500   0.765625 0
  0.546875   0.765625 0
  0.531250   0.765625 0
  0.562500   0.750000 0
  0.968750   0.750000 0
  0.937500   0.750000 0
  0.906250   0.750000 0
  0.875000   0.750000 0
  0.859375   0.750000 0
  0.828125   0.750000 0
  0.796875   0.750000 0
  0.765625   0.750000 0
  0.734375   0.750000 0
  0.703125   0.750000 0
  0.687500   0.750000 0
  0.671875   0.750000 0
  0.656250   0.750000 0
  0.625000   0.750000 0
  0.546875   0.750000 0
  0.531250   0.750000 0
  0.515625   0.750000 0
  0.562500   0.734375 0
  0.984375   0.734375 0
  0.953125   0.734375 0
  0.921875   0.734375 0
  0.890625   0.734375 0
  0.859375   0.734375 0
  0.843750   0.734375 0
  0.812500   0.734375 0
  0.781250   0.734375 0
  0.750000   0.734375 0
  0.718750   0.734375 0
  0.687500   0.734375 0
  0.671875   0.734375 0
  0.656250   0.734375 0
  0.640625   0.734375 0
  0.546875   0.734375 0
  0.531250   0.734375 0
  0.515625   0.734375 0
  0.562500   0.718750 0
  0.968750   0.718750 0
  0.937500   0.718750 0
  0.906250   0.718750 0
  0.875000   0.718750 0
  0.843750   0.718750 0
  0.796875   0.718750 0
  0.765625   0.718750 0
  0.734375   0.718750 0
  0.703125   0.718750 0
  0.687500   0.718750 0
  0.671875   0.718750 0
  0.656250   0.718750 0
  0.625000   0.718750 0
  0.546875   0.718750 0
  0.531250   0.718750 0
  0.515625   0.718750 0
  0.562500   0.703125 0
  0.953125   0.703125 0
  0.921875   0.703125 0
  0.890625   0.703125 0
  0.859375   0.703125 0
  0.828125   0.703125 0
  0.781250   0.703125 0
  0.750000   0.703125 0
  0.718750   0.703125 0
  0.687500   0.703125 0
  0.656250   0.703125 0
  0.546875   0.703125 0
  0.531250   0.703125 0
  0.515625   0.703125 0
  0.984375   0.687500 0
  0.937500   0.687500 0
  0.921875   0.687500 0
  0.906250   0.687500 0
  0.875000   0.687500 0
  0.843750   0.687500 0
  0.812500   0.687500 0
  0.765625   0.687500 0
  0.734375   0.687500 0
  0.703125   0.687500 0
  0.671875   0.687500 0
  0.640625   0.687500 0
  0.593750   0.687500 0
  0.562500   0.687500 0
  0.546875   0.687500 0
  0.531250   0.687500 0
  0.515625   0.687500 0
  0.968750   0.671875 0
  0.937500   0.671875 0
  0.921875   0.671875 0
  0.906250   0.671875 0
  0.890625   0.671875 0
  0.859375   0.671875 0
  0.828125   0.671875 0
  0.796875   0.671875 0
  0.765625   0.671875 0
  0.750000   0.671875 0
  0.718750   0.671875 0
  0.687500   0.671875 0
  0.656250   0.671875 0
  0.625000   0.671875 0
  0.593750   0.671875 0
  0.578125   0.671875 0
  0.546875   0.671875 0
  0.531250   0.671875 0
  0.515625   0.671875 0
  0.984375   0.656250 0
  0.953125   0.656250 0
  0.937500   0.656250 0
  0.921875   0.656250 0
  0.906250   0.656250 0
  0.875000   0.656250 0
  0.843750   0.656250 0
  0.812500   0.656250 0
  0.781250   0.656250 0
  0.750000   0.656250 0
  0.734375   0.656250 0
  0.703125   0.656250 0
  0.671875   0.656250 0
  0.640625   0.656250 0
  0.609375   0.656250 0
  0.578125   0.656250 0
  0.562500   0.656250 0
  0.531250   0.656250 0
  0.515625   0.656250 0
  0.968750   0.640625 0
  0.937500   0.640625 0
  0.906250   0.640625 0
  0.890625   0.640625 0
  0.859375   0.640625 0
  0.828125   0.640625 0
  0.796875   0.640625 0
  0.765625   0.640625 0
  0.734375   0.640625 0
  0.718750   0.640625 0
  0.687500   0.640625 0
  0.656250   0.640625 0
  0.625000   0.640625 0
  0.593750   0.640625 0
  0.562500   0.640625 0
  0.546875   0.640625 0
  0.515625   0.640625 0
  0.984375   0.625000 0
  0.953125   0.625000 0
  0.921875   0.625000 0
  0.890625   0.625000 0
  0.875000   0.625000 0
  0.843750   0.625000 0
  0.812500   0.625000 0
  0.781250   0.625000 0
  0.750000   0.625000 0
  0.734375   0.625000 0
  0.718750   0.625000 0
  0.703125   0.625000 0
  0.671875   0.625000 0
  0.640625   0.625000 0
  0.609375   0.625000 0
  0.578125   0.625000 0
  0.562500   0.625000 0
  0.546875   0.625000 0
  0.531250   0.625000 0
  0.968750   0.609375 0
  0.937500   0.609375 0
  0.906250   0.609375 0
  0.875000   0.609375 0
  0.859375   0.609375 0
  0.828125   0.609375 0
  0.796875   0.609375 0
  0.765625   0.609375 0
  0.750000   0.609375 0
  0.734375   0.609375 0
  0.718750   0.609375 0
  0.703125   0.609375 0
  0.687500   0.609375 0
  0.656250   0.609375 0
  0.625000   0.609375 0
  0.593750   0.609375 0
  0.562500   0.609375 0
  0.546875   0.609375 0
  0.531250   0.609375 0
  0.515625   0.609375 0
  0.984375   0.593750 0
  0.953125   0.593750 0
  0.921875   0.593750 0
  0.890625   0.593750 0
  0.859375   0.593750 0
  0.843750   0.593750 0
  0.812500   0.593750 0
  0.781250   0.593750 0
  0.750000   0.593750 0
  0.734375   0.593750 0
  0.718750   0.593750 0
  0.687500   0.593750 0
  0.671875   0.593750 0
  0.640625   0.593750 0
  0.609375   0.593750 0
  0.578125   0.593750 0
  0.562500   0.593750 0
  0.546875   0.593750 0
  0.531250   0.593750 0
  0.515625   0.593750 0
  0.968750   0.578125 0
  0.937500   0.578125 0
  0.906250   0.578125 0
  0.875000   0.578125 0
  0.890625   0.562500 0
  0.843750   0.578125 0
  0.828125   0.578125 0
  0.796875   0.578125 0
  0.765625   0.578125 0
  0.734375   0.578125 0
  0.703125   0.578125 0
  0.671875   0.578125 0
  0.656250   0.578125 0
  0.656250   0.562500 0
  0.625000   0.578125 0
  0.640625   0.562500 0
  0.593750   0.578125 0
  0.562500   0.578125 0
  0.546875   0.578125 0
  0.531250   0.578125 0
  0.515625   0.578125 0
  0.859375   0.562500 0
  0.828125   0.562500 0
  0.781250   0.562500 0
  0.750000   0.562500 0
  0.718750   0.562500 0
  0.687500   0.562500 0
  0.609375   0.562500 0
  0.578125   0.562500 0
  0.562500   0.562500 0
  0.546875   0.562500 0
  0.531250   0.562500 0
  0.515625   0.562500 0
  1.000000   0.812500 0
  0.578125   0.031250 0
  0.875000   0.546875 0
  0.625000   0.546875 0
  0.218750   0.000000 0
  0.640625   0.781250 0
  0.828125   0.093750 0
  0.031250   0.531250 0
  0.296875   0.328125 0
  0.296875   0.312500 0
  0.281250   0.312500 0
  0.765625   0.312500 0
  0.031250   0.859375 0
  0.093750   0.265625 0
  0.109375   0.250000 0
  0.187500   0.671875 0
  0.421875   0.640625 0
  0.031250   0.062500 0
  0.140625   0.125000 0
  0.562500   0.906250 0
  0.125000   0.437500 0
  0.203125   0.937500 0
  0.125000   0.421875 0
  0.140625   0.406250 0
  0.093750   0.437500 0
  0.109375   0.421875 0
  0.093750   0.421875 0
  0.109375   0.406250 0
  0.328125   0.125000 0
  0.750000   0.906250 0
  0.328125   0.109375 0
  0.750000   0.890625 0
  0.312500   0.125000 0
  0.734375   0.906250 0
  0.281250   0.343750 0
  0.265625   0.359375 0
  0.500000   0.796875 0
  0.078125   0.015625 0
  0.062500   0.015625 0
  0.484375   0.796875 0
  0.484375   0.781250 0
  0.062500   0.000000 0
  0.015625   0.250000 0
  0.062500   0.046875 0
  0.484375   0.828125 0
  0.484375   0.812500 0
  0.062500   0.031250 0
  0.281250   0.671875 0
  0.062500   0.234375 0
  0.328125   0.765625 0
  0.312500   0.750000 0
  0.015625   0.671875 0
  0.781250   0.187500 0
  0.015625   0.265625 0
  0.453125   0.250000 0
  0.453125   0.234375 0
  0.031250   0.265625 0
  0.046875   0.250000 0
  0.093750   0.015625 0
  0.265625   0.656250 0
  0.734375   0.281250 0
  0.156250   0.015625 0
  0.062500   0.265625 0
  0.046875   0.281250 0
  0.031250   0.281250 0
  0.343750   0.781250 0
  0.328125   0.781250 0
  0.265625   0.687500 0
  0.265625   0.703125 0
  0.156250   0.109375 0
  0.578125   0.890625 0
  0.484375   0.984375 0
  0.062500   0.203125 0
  0.328125   0.718750 0
  0.343750   0.734375 0
  0.343750   0.750000 0
  0.453125   0.500000 0
  0.437500   0.500000 0
  0.234375   0.093750 0
  0.171875   0.375000 0
  0.437500   0.531250 0
  0.468750   0.546875 0
  0.453125   0.546875 0
  0.187500   0.015625 0
  0.187500   0.000000 0
  0.609375   0.781250 0
[...]
CELL_DATA 7648
SCALARS scalar_value float 1
LOOKUP_TABLE default
5.08973e-05
5.59942e-05
6.70978e-05
4.94372e-05
0.0287015
0.0311052
0.0339739
0.0314854
5.32084e-05
6.41033e-05
6.91596e-05
0.012693
0.0145416
0.0110433
8.48966e-06
7.21e-06
7.68454e-06
5.59364e-06
1.45695e-08
1.41699e-08
1.76645e-08
1.19952e-08
1.02703e-08
1.18203e-09
1.30608e-09
1.91124e-09
1.0298e-09
0.000238896
0.000263661
2.9717e-10
3.78067e-10
5.07171e-10
3.0631e-10
8.50303e-10
1.0814e-09
1.40844e-09
9.31767e-10
3.44722e-10
4.6536e-10
6.18936e-10
0
1.33458e-10
0.000124216
0.000182812
0.000193989
0.00262584
0.00314653
0.00373435
1.60102e-09
0.00383764
0.0162833
2.17829e-08
2.02054e-09
2.75871e-09
0.000157321
1.73798e-09
0.000216078
0.000123605
4.34158e-10
6.38895e-10
9.37507e-10
6.17713e-09
5.26988e-09
0.000312351
0.00024918
0
0
1.45176e-09
2.42924e-06
0
7.37924e-07
0
8.25436e-06
1.65857e-05
0.000277906
0
0.000140991
0
0.000288792
3.42563e-05
4.81205e-05
0
0
0
0.00680586
1.20489e-09
4.54118e-07
4.08945e-07
0.00060133
0
0
0
2.49675e-08
3.58521e-08
0
8.65903e-10
0.000351527
1.35632e-09
0.000437623
0.000564104
2.42497e-05
6.6723e-09
2.77323e-05
5.33921e-05
1.48092e-08
7.6952e-07
6.87888e-06
0.00612827
0.00638181
0
6.42225e-10
1.30105e-05
1.30941e-05
0
4.23324e-08
0
5.67474e-08
2.93915e-08
1.13277e-09
0.0263264
0.0285916
0
0
9.94832e-08
0
0
0
0.0010457
0.00134551
0.000873494
0
0.000729517
0
0.00563803
1.57968e-06
0.00581744
0.000172156
3.5249e-09
7.39142e-10
0.00240068
0.000364035
0.0027889
0.00306849
3.18739e-10
0.00306534
0.00296457
0.0309994
2.48108e-08
0.0178693
0.000361475
0.000351557
2.45036e-09
3.24757e-09
4.18035e-09
0.00905136
0.00712816
0.0133521
4.77233e-10
0.00470366
2.61443e-09
0
1.54891e-08
1.81937e-08
5.62416e-06
0.00268849
0.00338139
3.76812e-10
0.00234619
5.17788e-09
0.0530125
0
0.00226166
0.00414235
0.00347043
1.07479e-05
9.91564e-08
0.0295942
0.00121694
1.8087e-06
0.00145156
0.0018503
2.61194e-06
0.00800859
0.000199634
0
3.5495e-08
0.0159947
0
0
0.000334499
0
0.00041566
0.000875121
0
1.0135e-10
0.00102514
0.00121157
0.00105257
0
0
0
0.00860329
4.30183e-08
0.0188949
0.0181748
4.17735e-08
3.44279e-09
0.00680419
0.00827372
0.00634823
2.28737e-10
3.61794e-10
5.38482e-10
3.25482e-10
0.0015323
6.77766e-08
0
0.0667289
0
9.60119e-05
0.000212105
0.0018582
0.00229582
1.23188e-10
0.00184458
0
2.88059e-05
8.24857e-05
0.0015175
0.0012435
0.0263645
0.0218141
0.000731606
7.42904e-07
0.0273207
0.0296532
0.0312393
0.0306705
0.000520358
0
0.000444151
0.00737752
6.04411e-07
0.0003893
0.000457093
0.00138127
2.45966e-06
0.00122522
0.00150512
0
0.00119601
0.000172611
3.41081e-09
4.6743e-09
4.59792e-09
0.00014658
2.94923e-07
0.000781767
0.000977543
1.14106e-08
1.44403e-08
1.45305e-08
0.00119004
3.19351e-10
0
0.0011751
3.51364e-10
0.00276458
2.55811e-10
0.000764257
0.00679421
1.43654e-08
0
0.023579
0.00590285
0
0.0577781
0.000734139
3.68579e-07
4.5864e-07
0
9.1263e-05
0.000466728
0.0104016
9.39977e-07
0.00179032
0.0109564
0
0
0.000873942
0
0.00790008
5.28381e-05
0
5.05513e-07
5.13087e-07
0
6.39811e-07
0
0.000226546
3.49285e-08
1.39339e-06
0.0187421
0.000408704
7.73704e-09
6.27791e-09
5.67625e-09
5.2634e-08
0.000723262
1.55013e-07
1.09051e-07
0.000995129
0.00937916
0
0.00138124
2.17647e-05
5.61596e-08
0.00121617
4.31377e-08
1.22835e-05
2.99832e-08
5.21457e-09
6.67851e-05
0.000328763
0.000702957
3.64994e-07
7.15149e-08
0.000345591
0.000498692
1.62164e-07
0.000492263
2.16831e-09
0.00281951
4.0069e-05
0.0199879
3.63529e-05
0.0199156
0.0167733
0.0148939
1.96878e-08
0.000160239
0.0219267
0.0205455
0
0.0210918
1.68404e-05
2.43744e-05
0.0148089
0
0
0
0
1.51264e-08
0.00124763
0
0.000980566
0
0.0288476
0.0259493
0.0261075
4.85059e-07
3.78394e-07
3.95371e-07
2.92426e-06
0.000519621
0.00116521
0.000639202
0
0
0
0.00048747
2.24467e-06
0
0.000655949
0
0.00109442
0.00413224
0
2.88947e-05
6.15852e-09
3.66921e-07
0.00128233
7.9739e-07
3.6998e-05
0.00183989
5.75931e-06
0.00194378
1.33396e-06
0
0.00627561
0.00585963
5.24509e-06
0.0091263
0.00888743
0.00716456
2.37466e-09
2.10444e-09
0.0185637
0.00153917
6.94719e-06
5.91782e-10
0.00694388
0.000501401
1.79117e-05
0.000675888
4.17896e-06
0
0.000297742
0.0101049
1.77562e-09
0.00937621
0.000473326
0.000288367
0.00428474
1.54521e-06
7.93161e-05
0
7.8823e-05
0
1.52172e-06
0.000229615
2.54369e-06
0.00860626
5.74854e-09
1.20943e-08
1.0718e-08
0.0310487
1.09688e-08
0.000577747
5.87932e-10
0.000378111
5.07237e-08
4.4674e-10
0
4.95629e-10
2.85822e-10
1.04822e-10
0
0.0143471
0.000240448
1.15295e-07
0.000165951
9.10891e-09
8.75583e-09
0.000983954
1.17738e-08
0.00100546
0.000853839
0.000184546
0.000294463
0.0238829
6.41867e-08
4.15647e-10
4.43483e-08
0.00022016
6.24256e-10
8.05344e-10
6.86427e-10
0.000207935
0.00136266
0.0113282
3.28288e-08
9.74225e-05
9.16482e-05
0
3.15933e-10
2.60127e-10
0
0
0
0.00106882
0
4.84092e-07
0
0
4.70031e-07
7.6767e-09
4.68044e-05
0
0.000266786
0
2.53474e-07
0
0
0.000477822
0.000633641
0.000826468
0.00054296
8.21451e-08
1.34464e-07
0
6.67696e-08
0
3.7148e-07
0.000215075
0
5.08661e-08
0.0238144
2.67716e-05
4.26635e-10
3.18352e-10
0.000850723
6.33023e-06
5.4195e-10
4.02495e-10
0.00422264
1.03379e-09
8.03529e-10
7.6951e-10
5.97865e-10
0.0212878
0.000264689
8.32178e-10
0
0.000358095
1.76873e-10
0.000932851
7.6459e-10
1.7406e-10
0.00113798
6.08957e-10
0.00332696
4.60561e-10
7.70962e-10
0.000527674
2.88259e-06
0.0528256
0.00190196
2.91796e-06
2.05999e-06
0.0014887
1.26165e-10
0.0164514
1.74602e-10
9.8124e-06
0.0172928
1.75897e-05
0.0137773
7.68743e-06
2.66943e-05
1.12577e-05
3.31232e-05
3.83057e-10
4.14691e-10
0.0113513
1.72751e-06
0.00289409
2.13171e-06
0.000470141
2.72672e-06
1.97115e-06
0.0445216
3.1447e-06
2.65509e-06
1.86946e-05
2.00502e-05
2.67628e-05
0.00409964
1.26496e-09
6.25977e-10
0.0038179
0
0
1.6626e-10
6.80733e-05
1.93401e-06
1.72252e-08
7.7399e-05
6.5737e-05
0.000110992
7.42831e-09
0.000673097
2.26481e-06
0.00150413
1.66035e-10
1.10178e-06
0.00932087
0
0.00242007
1.98532e-08
1.17619e-05
1.13021e-05
0
0
0.000705542
0
2.13324e-05
0.00231581
0
0.00521213
0.00634332
0
4.93912e-10
4.25095e-10
0.0341505
8.64925e-10
3.04729e-06
0.000550334
2.49901e-10
0.000968654
3.69605e-10
2.37824e-10
1.91222e-10
1.53101e-10
0.000531077
0.00647458
1.8852e-10
0.0183357
1.97227e-06
0.0412701
0.0417981
0.0438992
0.00123465
0.00108055
0.00115979
1.14195e-08
0.00497412
9.51413e-09
5.48426e-10
1.69543e-10
0.00112472
2.5297e-10
3.24575e-10
2.80284e-10
0.010469
3.56632e-10
2.38161e-10
1.15163e-10
1.65991e-10
1.36225e-10
2.14647e-10
0.00094828
0
1.16455e-10
0.0370818
3.19657e-07
0.0421885
0.000682186
3.6818e-06
3.14875e-06
0.0109693
0.00789074
1.26325e-05
0.0212552
0.00112389
0.00171018
0.00807088
0
0
0
6.02488e-07
0.00121818
0.0014067
0
0
8.63332e-07
0
6.71143e-07
2.41802e-06
4.51164e-07
0.000126664
0.00015829
3.40374e-07
3.9044e-10
6.07667e-09
0.0110219
4.02211e-10
6.81694e-09
0
0
0
1.77677e-09
0.0278072
5.20997e-10
0.0258805
5.46983e-08
2.18382e-05
2.37631e-05
3.19331e-05
0.00490017
0.00515641
0.00549221
9.02411e-05
0
8.38742e-06
0.0021699
0.0051985
0.00215282
0
0.00441636
0.00253546
0.00282523
2.16676e-10
1.4115e-05
0.00268766
0.00347636
2.20747e-05
7.17488e-09
0.00601212
0.00113944
0.000910446
0.00151673
0.000298507
4.00773e-07
0.000181683
1.75305e-07
0.000132681
0.000172073
0.0113473
0.0128068
0.0226588
0.0248621
0.0261434
0.000431103
0.000273077
0.0183435
0.020136
4.86654e-08
3.06746e-07
0.0194006
0.0223677
0.000150644
0.000166061
0.000137123
0.0132116
0.0146743
0.00100964
0.0166068
7.14647e-05
8.45537e-05
0.000106681
0.00916134
0.0102773
0.0117701
3.5793e-09
2.18697e-09
9.35452e-06
0.00702121
0.00667609
0.00810496
0.00103329
0.00742695
0.0092579
0.00898083
1.12507e-09
3.42358e-05
4.05562e-07
4.62289e-05
7.29916e-05
7.22921e-09
0.00502815
0.00588446
0.00690473
0
1.87693e-10
1.06113e-10
1.22014e-10
8.04977e-05
5.74643e-05
0
0.00156261
1.54159e-07
0
0
2.39107e-06
0
0.00524969
0.00916977
2.45587e-06
9.28987e-07
1.03187e-06
7.89606e-07
1.34534e-06
1.17002e-06
9.921e-07
1.88408e-06
4.29472e-10
2.76892e-06
2.77964e-06
8.30864e-05
0.0001144
2.61263e-07
4.7674e-07
0
0.00238056
0
5.19824e-05
6.57955e-05
0.00325522
9.92569e-07
8.99053e-07
0
7.42839e-08
7.92072e-09
0.00158369
1.63478e-07
3.92889e-09
0.000376709
0
0.000593219
0
0
0.00048258
3.26942e-08
5.47832e-05
0
0.000747327
9.35597e-05
1.16992e-07
4.58734e-08
6.6898e-05
0
6.16943e-07
0.00019957
5.44607e-07
6.10632e-07
0.000105097
6.41847e-07
0.00171088
0.00191507
1.24284e-10
0.00038949
0.0013914
0
0
0.038903
0.00166045
0.000598742
0
0.000641071
0
3.7359e-07
0.00110217
0.00116475
0.000933814
5.57619e-07
4.99914e-07
0.0119063
0.000462321
0.000369723
1.52275e-09
0.000184839
0.000229045
0
5.618e-08
0.0219994
0.000370426
7.41977e-10
7.28372e-09
0.00374522
0.00432307
5.15346e-06
0.00152362
0.00170212
1.08713e-05
0.00173512
0
0.000214995
1.06893e-06
1.44056e-05
0.00228685
1.91967e-09
0.00264686
0.00691218
2.82072e-10
0
0.00449608
3.08232e-09
0.00161692
1.22981e-08
3.02988e-08
0.000133397
2.76245e-08
0
0
0
2.72856e-08
1.35894e-08
0
0.000532566
0
0.000211599
9.15071e-09
1.073e-08
0
6.16543e-08
0.000211246
0.000330334
1.3613e-07
0
0
5.66915e-05
6.93198e-05
5.24649e-05
0.0121709
7.37312e-05
0
0
6.30122e-05
8.7013e-05
4.34974e-07
5.22653e-05
0.000394128
0
0
4.05907e-09
0.000645246
4.47665e-09
2.69552e-09
8.90009e-05
5.99919e-08
2.4718e-08
6.17526e-05
0.00663597
0.00850037
0
2.78501e-09
0.00618861
3.56467e-09
3.44194e-09
5.76237e-09
0.0309076
1.30775e-07
3.43719e-09
1.50084e-09
1.81171e-07
0.000706748
5.0675e-09
0.000849768
0.000588024
0.0181127
0
0.000182953
0.000220438
0.00029197
0.000467258
4.21316e-07
0.00029807
2.12016e-07
9.91879e-08
0.000188147
0.000158016
8.68124e-09
0.00011663
3.83689e-08
0.00013326
0.0132479
0
1.35087e-05
0
8.86538e-06
1.9904e-09
3.81161e-09
2.0276e-05
1.02797e-07
8.89169e-06
0.000318317
0
0
5.28817e-10
0.0137761
0.0166967
0
0.00155627
0
0
0
4.71829e-05
1.87158e-08
0.00388106
0
0.00774723
1.0929e-08
0
0.000121777
0.00071212
0.045831
0.0231844
0.04389
0.0513421
0.00212339
0.0426967
0.00663521
4.57223e-08
0.010276
0.00231145
1.90417e-08
0.00883177
0.00883622
7.9162e-10
0.000183975
3.22502e-08
0
6.92929e-05
0.00119528
1.51169e-06
7.89605e-07
0.000925528
0.0364404
6.10394e-06
0
0.000686492
3.47778e-08
0.00781708
0.0343234
0.00157952
0.0389683
0.00243587
4.49987e-06
0.000141482
0.0383895
0.00541846
8.57939e-05
0.00128914
1.40724e-06
2.19086e-06
0.00462201
1.22511e-08
0.000187843
8.56236e-07
6.45184e-05
3.36593e-08
0.0154293
0.00014282
1.98709e-07
8.15892e-08
7.02925e-05
0.00242707
0
0.032677
0
0
0
0.000114633
0
9.74329e-05
4.03763e-07
6.00857e-05
0.0366962
2.22911e-07
0.000968594
0.000117576
7.34257e-08
2.21283e-10
0
5.21803e-10
2.81162e-05
0
0
0
6.09572e-09
0.0334599
6.23515e-07
0.053229
0.00744052
0.013716
1.07806e-07
1.12485e-08
0.0044322
0.004432
1.22608e-08
0.0382464
0.0200183
1.39132e-07
5.00382e-09
0
5.53173e-09
7.87229e-08
6.37057e-05
0.00292905
0.0339366
0.00438555
3.15858e-09
3.59855e-09
4.45384e-09
3.65381e-09
0.00132012
0.0356781
0.000879729
0
0.00143982
0.0412935
0
3.9588e-06
0.0115417
9.02115e-10
0.0393128
0.00399435
0.00175136
0
1.30632e-09
1.59428e-06
0.0012839
0
0.00110598
1.30347e-10
0.0148282
6.32607e-07
4.91906e-05
0.00111994
0
0
2.02771e-09
5.35948e-06
0.00117876
1.04883e-06
1.17554e-10
0.00104597
0.0018175
7.26326e-10
1.91821e-07
0.000745745
0.000997074
4.52875e-07
0
7.82565e-06
0.000804989
0
3.42651e-06
0
2.44386e-09
3.44943e-09
0
1.7413e-08
0
1.78779e-05
0.000854141
0.000748764
0
0.000148729
7.05583e-10
5.11414e-06
0.000597402
7.00843e-08
1.84334e-09
0.0243486
2.15061e-06
2.30074e-10
0.000181066
0
0.0111291
2.33322e-06
1.52398e-05
0.00246958
5.52218e-09
0.000914508
5.32977e-09
0.00353785
9.77447e-06
1.07547e-09
1.83594e-10
0.0128806
0
8.73834e-10
0
0.00960738
0
0.00732448
1.24286e-08
4.41842e-05
7.97625e-05
2.76771e-08
9.78219e-09
0
1.77866e-09
0.000503794
5.72843e-08
0.0110447
0.00696339
2.7821e-07
4.10519e-05
1.82479e-08
5.696e-05
7.12133e-05
0.00446639
1.91997e-05
4.51857e-05
1.40454e-08
0.00471314
8.91691e-05
1.38002e-05
0.00506265
2.0232e-05
0
0.000133644
0.00587956
0
2.98675e-05
5.85993e-10
0.0163976
0.00145716
0
1.17759e-08
0.00537483
0.00640051
9.68414e-09
1.76638e-08
6.50357e-06
3.12337e-05
0
0.00366431
8.76999e-06
3.61844e-05
7.94744e-09
3.86443e-08
0
2.8634e-07
0.00140051
0
1.29396e-05
0
0.0158561
0.00043854
1.41609e-10
2.69879e-05
0
0.000438845
0.00153761
0.014377
0.000311492
0.00397463
0
9.41766e-09
2.39635e-06
8.88654e-07
0
0
0
5.55064e-10
1.05809e-08
0.0054738
0
3.99343e-10
0.00332987
0.00245815
2.40664e-10
0.00611858
3.22779e-05
0.00426826
0.00446542
0.00102737
0.00808628
0.000650298
0.0703835
1.53474e-05
0.0028318
5.78145e-10
0.0494807
7.00127e-08
2.05727e-10
0.00113191
2.3789e-07
3.73976e-07
0.0014835
3.16021e-09
0.00101662
1.29306e-07
2.23592e-07
0
1.41223e-09
0.00212339
0.0192191
6.51272e-08
0.00067372
0.00692274
3.97956e-05
0
0.0237667
1.46675e-05
0
0.00137276
0.00166805
0.00171659
0.000137723
0.000781871
0.000269178
5.82425e-10
0.0017314
1.82285e-09
7.68245e-10
5.01715e-06
0.000160539
0
0.0660573
1.06374e-06
4.59155e-05
4.85702e-06
0
0.00340434
0.000121847
0
0
1.57017e-06
0
1.54744e-10
0
0.00708818
2.79837e-06
8.02994e-05
0
0
4.64707e-05
0
0
0.00354539
0
0.000854458
0
0
1.01147e-08
3.95571e-05
6.77043e-05
2.28246e-08
0
0
0.000379476
0.000410019
8.95138e-07
0.00084785
0.00131687
1.39112e-06
0
0
0.000139793
6.80397e-05
0
0
0
0.000193214
5.77367e-07
4.5839e-08
2.57e-07
0
0
0
0
0
3.77001e-05
5.08796e-07
0
5.4018e-07
0.00116744
1.27778e-06
1.0647e-06
0.0170927
0.00623036
1.13081e-06
0
1.2999e-05
0
0.00652462
0
2.58759e-07
0.00106338
6.29386e-07
6.36248e-10
0.00394353
2.49329e-09
0
0.00043695
7.32202e-07
0.0212617
2.08444e-05
0.021054
0.00619548
1.21843e-06
9.22518e-09
2.45246e-08
0.00859858
0.00903958
2.0091e-05
4.56038e-09
0.000114675
4.50084e-08
0
0
1.06145e-09
2.05542e-06
0.000889974
0.000974612
4.00604e-06
0.000261163
1.45021e-08
0
0.0287882
0.0054079
0.000803709
0
0.00469255
2.4962e-06
0.0490279
4.88324e-10
0.000780492
0.000147009
0.0169344
0.00107445
0
0.000346406
1.72229e-08
0.0157213
0.00036172
0.00878576
0.000618969
5.07601e-10
2.5001e-10
0
1.16358e-07
0.000325191
6.25817e-06
3.16098e-07
2.15543e-10
0
0.00295663
2.57339e-09
0.00689748
0.00768548
0.00666227
0.00687029
0.0135195
2.36184e-07
0
0.0428982
0.0123793
0
3.32691e-08
0.000477198
0.000726812
7.55988e-08
0
0.0153305
3.23604e-06
0.000614569
4.73464e-10
0.0178192
0
1.2909e-10
2.61028e-07
0.0174198
0
0.0136208
0.000463952
1.0608e-06
0.0437731
0.000125829
0.000349882
0
0.0249835
0.00431446
0.00369264
0.00482866
0.00836504
0.000778822
7.1493e-05
0.0144476
0.0186616
0
0.0391434
3.45074e-10
1.41078e-06
0.0148344
0.010503
1.39525e-08
0.018023
0.0462306
8.68702e-07
0.000851936
0.000861649
1.2067e-06
0.0186272
0.00466145
8.40153e-06
5.59342e-05
0.00403659
0.054973
0
0.00526668
9.99191e-10
2.15537e-07
0
0.00131884
1.83149e-07
0.00863389
1.3879e-09
0.00148454
0
0.000284007
0.00386447
3.70069e-05
2.23521e-05
0.00334609
1.96962e-05
0.00882031
0.001374
0
0.0170159
0.000670879
0.00353604
1.44911e-06
0.000679239
0.00114584
0
0.0404751
0.000551499
5.74847e-08
1.97556e-06
0.00589487
0
0.00142864
2.20465e-08
0.00438034
0.0112107
1.75515e-06
6.28938e-05
2.08172e-08
6.33588e-08
0.00121024
0.00158324
0.0684835
4.66485e-10
0.00138985
0.00185591
0.00422999
0.0552544
1.57554e-05
0.0262517
3.60129e-08
1.24778e-08
0.000579442
3.52604e-07
0.000734171
9.39285e-08
0.0150857
0
2.08792e-06
0.0182977
0.00139951
0
0.00119489
0.000193576
0.00788508
0.0130766
0
0.00010161
2.7577e-07
0.00143607
2.80898e-10
0.00148694
1.66578e-06
2.57229e-09
9.69518e-06
2.18694e-05
5.63013e-09
0.0476623
2.31749e-09
1.7815e-06
0.00127694
1.98074e-10
0.00582107
0.0504668
0.000486137
2.60184e-10
2.28311e-06
0.0519533
3.91758e-09
0.00847356
2.47139e-09
2.97905e-09
0.00241624
0.0163338
2.47163e-06
0.000707238
0
0
8.47201e-08
8.52569e-06
0.00100561
0
0.000590866
0.000867793
2.88788e-07
0
1.39025e-08
1.83749e-07
2.38059e-08
0.0118644
5.99009e-09
0.0522605
2.72215e-09
1.85397e-09
0
1.16934e-08
0
0
7.69202e-05
0.00541899
4.6719e-08
0
0.0224622
2.86737e-07
1.6902e-08
2.33982e-07
0
0.00290773
0.0126702
6.76174e-07
0.000516069
0.0410775
5.77269e-08
9.49794e-08
0
0.000135524
4.96127e-09
2.24664e-09
4.50645e-05
0.0113236
6.14576e-08
0.00150054
4.11109e-08
0.000478283
0.00421424
0.0283756
0
0.000278688
0.0476982
0.00287358
0.00099271
1.03708e-06
0.0570012
0.01462
0.000799597
5.8511e-05
0.0168143
1.04447e-07
1.95826e-07
0.00011081
4.07871e-06
0.000793396
2.5163e-10
1.04123e-05
0.000970415
2.08732e-05
0.00161984
4.56598e-10
2.30059e-10
5.39364e-05
0.00307723
1.26886e-05
4.35976e-06
0.0021878
0.00118359
0.0626111
0.00576128
1.82856e-06
0.000513575
0.0297482
0.023789
0.000473729
0
0.00396959
1.17588e-06
0.00113503
0
0.000435799
1.88486e-08
0.0219481
9.16698e-08
0.000602499
5.46601e-08
0
0.000634254
7.62489e-09
0.000260773
0.0213596
6.42683e-09
2.07896e-06
2.48498e-08
0.00589874
2.86938e-07
1.37405e-10
3.3612e-09
0.00455601
0.00503511
0.00579374
0.0131088
0.00134017
5.66521e-08
0.0132303
0.00941076
0.0596204
0.00529309
0.00307023
3.80721e-10
3.40085e-06
0.000602857
0.0117469
2.86183e-05
0.00255883
0.00506285
0.0463202
0
2.97449e-10
0.00166448
2.05888e-06
1.24007e-06
0.00112589
0.00337394
8.3402e-09
4.09769e-05
0.051151
0.0540338
0.00365909
0.00429332
8.0791e-10
0.0560865
2.60888e-08
0.00476561
9.21576e-10
0.0572939
1.68934e-10
0.00579657
0
0.0364114
0.000753703
1.43108e-06
8.59788e-08
0.000150009
0.000145284
7.99685e-07
0.000131439
0
0.00953667
5.57891e-07
0
0
0.0352794
7.45503e-05
0
0.00292254
2.1497e-09
0
0
0.000715874
1.17982e-10
0
0.000138838
0.000274334
1.56816e-08
9.42288e-05
3.79005e-08
0
2.82844e-07
1.2707e-08
1.99147e-08
0.000502158
4.31911e-09
0.00454853
5.96203e-09
0
0
0.000306335
1.58053e-06
6.19699e-09
1.57959e-09
0.00262511
0
0.00199442
0
0.0013055
0.00230872
1.55704e-09
0.00113882
2.57651e-05
0
0
0.000201548
0.0594194
1.44981e-09
0.00115138
4.6015e-07
0
7.42547e-05
0.0056202
7.65222e-05
0.00618812
8.1801e-05
0.00338347
7.59793e-06
0.00504419
6.37544e-05
1.00109e-10
1.10692e-09
2.96853e-08
0.0135953
1.98674e-07
2.42026e-08
0.0111424
8.30341e-10
0.0214791
0.00214302
0.024076
4.08047e-05
0
0
0.000959444
0.00189236
0
6.74961e-07
8.42298e-07
0.00847413
0.0168033
0.000195144
0.00036421
0.000514041
7.00905e-07
6.60654e-06
0
0
0.0130073
0
0.000462445
0.00190134
2.33595e-09
0
0.000609782
0.0191467
0.00362998
1.78923e-09
2.93002e-09
2.31062e-09
2.62706e-09
1.56914e-05
1.56923e-09
1.55451e-05
2.11362e-06
0.0298407
1.14994e-10
0.00585902
2.01743e-09
2.22576e-05
2.60056e-09
2.01774e-10
3.03021e-09
0.0528215
0.00589001
3.32633e-09
1.22209e-05
7.93006e-09
8.92974e-06
0.00831461
1.41408e-09
1.08408e-08
0.000107155
0.000118171
5.72304e-07
8.85278e-05
1.03911e-09
0.0015678
7.50739e-05
0.000456928
2.84504e-08
1.28959e-08
0.000269216
0.005923
2.57204e-08
0
0
8.74451e-09
1.49022e-07
2.22493e-08
0.000299132
0.0079003
0.00699923
0
0.0012401
4.49912e-05
3.72395e-05
0.0149306
0
6.41289e-05
0
0.000845474
0.00559236
8.46837e-09
0
1.35022e-09
0
0.00798454
0.00723835
3.74109e-05
0
0
7.75891e-05
3.11765e-08
3.1272e-08
0.00980526
0.00169545
0.000109483
0
4.47173e-09
9.0065e-05
4.96666e-06
0.0417287
0.0232664
0.0450043
0
0
0
0
1.89885e-09
0
3.43054e-05
3.44609e-05
0.00186141
0.0441662
0.000969925
0.000726156
1.31043e-07
0
1.70243e-07
1.6638e-06
2.92986e-08
6.19959e-09
0.00703009
4.54816e-10
2.3659e-05
3.63054e-05
0.00861198
1.01609e-06
2.97072e-05
0.00987144
0
0
8.23209e-10
0.00598773
0.00634869
4.75747e-09
3.07143e-10
0.00541842
0
0.00480063
0.0160561
0.00660203
0.00651911
0
7.34189e-10
0.00102713
0.000193642
1.10592e-06
0.000477117
0
0
0.00147975
2.75264e-07
4.03736e-07
2.9092e-07
0.00972745
0
0.00981301
0.0116281
4.50491e-08
0
0
3.06726e-06
7.74118e-10
0
0.0189534
0.00169776
0.000210625
0.000208133
5.36629e-07
1.10849e-08
0.000267809
0.000403653
2.50499e-08
0.0256244
0.000225748
3.74351e-07
1.50741e-07
0.000133256
0.000131856
0.000292781
6.46366e-09
1.10124e-08
1.51706e-10
0.000901982
0
9.89946e-05
6.06574e-09
0.000131737
6.65032e-05
2.09934e-08
3.87744e-08
0.000282281
0
0.000165553
0.00105772
0.000132486
3.59145e-06
0
0.00826293
0.00900407
0.000147828