# vtk DataFile Version 2.0
Unstructured Grid by M++
ASCII
DATASET UNSTRUCTURED_GRID
POINTS 4072 float
  0.609375   0.843750 0
  0.562500   0.843750 0
  0.531250   0.843750 0
  0.875000   0.828125 0
  0.984375   0.828125 0
  0.953125   0.828125 0
  0.937500   0.828125 0
  0.843750   0.828125 0
  0.812500   0.828125 0
  0.781250   0.828125 0
  0.765625   0.828125 0
  0.734375   0.828125 0
  0.703125   0.828125 0
  0.671875   0.828125 0
  0.640625   0.828125 0
  0.609375   0.828125 0
  0.593750   0.828125 0
  0.562500   0.828125 0
  0.546875   0.828125 0
  0.531250   0.828125 0
  0.515625   0.828125 0
  0.968750   0.812500 0
  0.937500   0.812500 0
  0.921875   0.812500 0
  0.890625   0.812500 0
  0.859375   0.812500 0
  0.828125   0.812500 0
  0.796875   0.812500 0
  0.765625   0.812500 0
  0.750000   0.812500 0
  0.718750   0.812500 0
  0.687500   0.812500 0
  0.656250   0.812500 0
  0.625000   0.812500 0
  0.593750   0.812500 0
  0.578125   0.812500 0
  0.546875   0.812500 0
  0.531250   0.812500 0
  0.515625   0.812500 0
  0.984375   0.796875 0
  0.562500   0.015625 0
  0.953125   0.796875 0
  0.921875   0.796875 0
  0.906250   0.796875 0
  0.875000   0.796875 0
  0.843750   0.796875 0
  0.812500   0.796875 0
  0.781250   0.796875 0
  0.750000   0.796875 0
  0.734375   0.796875 0
  0.703125   0.796875 0
  0.671875   0.796875 0
  0.640625   0.796875 0
  0.609375   0.796875 0
  0.578125   0.796875 0
  0.562500   0.796875 0
  0.531250   0.796875 0
  0.515625   0.796875 0
  0.968750   0.781250 0
  0.546875   0.000000 0
  0.937500   0.781250 0
  0.906250   0.781250 0
  0.890625   0.781250 0
  0.859375   0.781250 0
  0.828125   0.781250 0
  0.796875   0.781250 0
  0.765625   0.781250 0
  0.734375   0.781250 0
  0.718750   0.781250 0
  0.687500   0.781250 0
  0.656250   0.781250 0
  0.625000   0.781250 0
  0.593750   0.781250 0
  0.562500   0.781250 0
  0.546875   0.781250 0
  0.515625   0.781250 0
  0.984375   0.765625 0
  0.953125   0.765625 0
  0.921875   0.765625 0
  0.890625   0.765625 0
  0.875000   0.765625 0
  0.843750   0.765625 0
  0.812500   0.765625 0
  0.781250   0.765625 0
  0.750000   0.765625 0
  0.718750   0.765625 0
  0.703125   0.765625 0
  0.671875   0.765625 0
  0.640625   0.765625 0
  0.609375   0.765625 0
  0.578125   0.765625 0
  0.593750   0.750000 0
  0.562500   0.765625 0
  0.546875   0.765625 0
  0.531250   0.765625 0
  0.562500   0.750000 0
  0.968750   0.750000 0
  0.937500   0.750000 0
  0.906250   0.750000 0
  0.875000   0.750000 0
  0.859375   0.750000 0
  0.828125   0.750000 0
  0.796875   0.750000 0
  0.765625   0.750000 0
  0.734375   0.750000 0
  0.703125   0.750000 0
  0.687500   0.750000 0
  0.671875   0.750000 0
  0.656250   0.750000 0
  0.625000   0.750000 0
  0.546875   0.750000 0
  0.531250   0.750000 0
  0.515625   0.750000 0
  0.562500   0.734375 0
  0.984375   0.734375 0
  0.953125   0.734375 0
  0.921875   0.734375 0
  0.890625   0.734375 0
  0.859375   0.734375 0
  0.843750   0.734375 0
  0.812500   0.734375 0
  0.781250   0.734375 0
  0.750000   0.734375 0
  0.718750   0.734375 0
  0.687500   0.734375 0
  0.671875   0.734375 0
  0.656250   0.734375 0
  0.640625   0.734375 0
  0.546875   0.734375 0
  0.531250   0.734375 0
  0.515625   0.734375 0
  0.562500   0.718750 0
  0.968750   0.718750 0
  0.937500   0.718750 0
  0.906250   0.718750 0
  0.875000   0.718750 0
  0.843750   0.718750 0
  0.796875   0.718750 0
  0.765625   0.718750 0
  0.734375   0.718750 0
  0.703125   0.718750 0
  0.687500   0.718750 0
  0.671875   0.718750 0
  0.656250   0.718750 0
  0.625000   0.718750 0
  0.546875   0.718750 0
  0.531250   0.718750 0
  0.515625   0.718750 0
  0.562500   0.703125 0
  0.953125   0.703125 0
  0.921875   0.703125 0
  0.890625   0.703125 0
  0.859375   0.703125 0
  0.828125   0.703125 0
  0.781250   0.703125 0
  0.750000   0.703125 0
  0.718750   0.703125 0
  0.687500   0.703125 0
  0.656250   0.703125 0
  0.546875   0.703125 0
  0.531250   0.703125 0
  0.515625   0.703125 0
  0.984375   0.687500 0
  0.937500   0.687500 0
  0.921875   0.687500 0
  0.906250   0.687500 0
  0.875000   0.687500 0
  0.843750   0.687500 0
  0.812500   0.687500 0
  0.765625   0.687500 0
  0.734375   0.687500 0
  0.703125   0.687500 0
  0.671875   0.687500 0
  0.640625   0.687500 0
  0.593750   0.687500 0
  0.562500   0.687500 0
  0.546875   0.687500 0
  0.531250   0.687500 0
  0.515625   0.687500 0
  0.968750   0.671875 0
  0.937500   0.671875 0
  0.921875   0.671875 0
  0.906250   0.671875 0
  0.890625   0.671875 0
  0.859375   0.671875 0
  0.828125   0.671875 0
  0.796875   0.671875 0
  0.765625   0.671875 0
  0.750000   0.671875 0
  0.718750   0.671875 0
  0.687500   0.671875 0
  0.656250   0.671875 0
  0.625000   0.671875 0
  0.593750   0.671875 0
  0.578125   0.671875 0
  0.546875   0.671875 0
  0.531250   0.671875 0
  0.515625   0.671875 0
  0.984375   0.656250 0
  0.953125   0.656250 0
  0.937500   0.656250 0
  0.921875   0.656250 0
  0.906250   0.656250 0
  0.875000   0.656250 0
  0.843750   0.656250 0
  0.812500   0.656250 0
  0.781250   0.656250 0
  0.750000   0.656250 0
  0.734375   0.656250 0
  0.703125   0.656250 0
  0.671875   0.656250 0
  0.640625   0.656250 0
  0.609375   0.656250 0
  0.578125   0.656250 0
  0.562500   0.656250 0
  0.531250   0.656250 0
  0.515625   0.656250 0
  0.968750   0.640625 0
  0.937500   0.640625 0
  0.906250   0.640625 0
  0.890625   0.640625 0
  0.859375   0.640625 0
  0.828125   0.640625 0
  0.796875   0.640625 0
  0.765625   0.640625 0
  0.734375   0.640625 0
  0.718750   0.640625 0
  0.687500   0.640625 0
  0.656250   0.640625 0
  0.625000   0.640625 0
  0.593750   0.640625 0
  0.562500   0.640625 0
  0.546875   0.640625 0
  0.515625   0.640625 0
  0.984375   0.625000 0
  0.953125   0.625000 0
  0.921875   0.625000 0
  0.890625   0.625000 0
  0.875000   0.625000 0
  0.843750   0.625000 0
  0.812500   0.625000 0
  0.781250   0.625000 0
  0.750000   0.625000 0
  0.734375   0.625000 0
  0.718750   0.625000 0
  0.703125   0.625000 0
  0.671875   0.625000 0
  0.640625   0.625000 0
  0.609375   0.625000 0
  0.578125   0.625000 0
  0.562500   0.625000 0
  0.546875   0.625000 0
  0.531250   0.625000 0
  0.968750   0.609375 0
  0.937500   0.609375 0
  0.906250   0.609375 0
  0.875000   0.609375 0
  0.859375   0.609375 0
  0.828125   0.609375 0
  0.796875   0.609375 0
  0.765625   0.609375 0
  0.750000   0.609375 0
  0.734375   0.609375 0
  0.718750   0.609375 0
  0.703125   0.609375 0
  0.687500   0.609375 0
  0.656250   0.609375 0
  0.625000   0.609375 0
  0.593750   0.609375 0
  0.562500   0.609375 0
  0.546875   0.609375 0
  0.531250   0.609375 0
  0.515625   0.609375 0
  0.984375   0.593750 0
  0.953125   0.593750 0
  0.921875   0.593750 0
  0.890625   0.593750 0
  0.859375   0.593750 0
  0.843750   0.593750 0
  0.812500   0.593750 0
  0.781250   0.593750 0
  0.750000   0.593750 0
  0.734375   0.593750 0
  0.718750   0.593750 0
  0.687500   0.593750 0
  0.671875   0.593750 0
  0.640625   0.593750 0
  0.609375   0.593750 0
  0.578125   0.593750 0
  0.562500   0.593750 0
  0.546875   0.593750 0
  0.531250   0.593750 0
  0.515625   0.593750 0
  0.968750   0.578125 0
  0.937500   0.578125 0
  0.906250   0.578125 0
  0.875000   0.578125 0
  0.890625   0.562500 0
  0.843750   0.578125 0
  0.828125   0.578125 0
  0.796875   0.578125 0
  0.765625   0.578125 0
  0.734375   0.578125 0
  0.703125   0.578125 0
  0.671875   0.578125 0
  0.656250   0.578125 0
  0.656250   0.562500 0
  0.625000   0.578125 0
  0.640625   0.562500 0
  0.593750   0.578125 0
  0.562500   0.578125 0
  0.546875   0.578125 0
  0.531250   0.578125 0
  0.515625   0.578125 0
  0.859375   0.562500 0
  0.828125   0.562500 0
  0.781250   0.562500 0
  0.750000   0.562500 0
  0.718750   0.562500 0
  0.687500   0.562500 0
  0.609375   0.562500 0
  0.578125   0.562500 0
  0.562500   0.562500 0
  0.546875   0.562500 0
  0.531250   0.562500 0
  0.515625   0.562500 0
  1.000000   0.812500 0
  0.578125   0.031250 0
  0.875000   0.546875 0
  0.625000   0.546875 0
  0.218750   0.000000 0
  0.640625   0.781250 0
  0.828125   0.093750 0
  0.031250   0.531250 0
  0.296875   0.328125 0
  0.296875   0.312500 0
  0.281250   0.312500 0
  0.765625   0.312500 0
  0.031250   0.859375 0
  0.093750   0.265625 0
  0.109375   0.250000 0
  0.187500   0.671875 0
  0.421875   0.640625 0
  0.031250   0.062500 0
  0.140625   0.125000 0
  0.562500   0.906250 0
  0.125000   0.437500 0
  0.203125   0.937500 0
  0.125000   0.421875 0
  0.140625   0.406250 0
  0.093750   0.437500 0
  0.109375   0.421875 0
  0.093750   0.421875 0
  0.109375   0.406250 0
  0.328125   0.125000 0
  0.750000   0.906250 0
  0.328125   0.109375 0
  0.750000   0.890625 0
  0.312500   0.125000 0
  0.734375   0.906250 0
  0.281250   0.343750 0
  0.265625   0.359375 0
  0.500000   0.796875 0
  0.078125   0.015625 0
  0.062500   0.015625 0
  0.484375   0.796875 0
  0.484375   0.781250 0
  0.062500   0.000000 0
  0.015625   0.250000 0
  0.062500   0.046875 0
  0.484375   0.828125 0
  0.484375   0.812500 0
  0.062500   0.031250 0
  0.281250   0.671875 0
  0.062500   0.234375 0
  0.328125   0.765625 0
  0.312500   0.750000 0
  0.015625   0.671875 0
  0.781250   0.187500 0
  0.015625   0.265625 0
  0.453125   0.250000 0
  0.453125   0.234375 0
  0.031250   0.265625 0
  0.046875   0.250000 0
  0.093750   0.015625 0
  0.265625   0.656250 0
  0.734375   0.281250 0
  0.156250   0.015625 0
  0.062500   0.265625 0
  0.046875   0.281250 0
  0.031250   0.281250 0
  0.343750   0.781250 0
  0.328125   0.781250 0
  0.265625   0.687500 0
  0.265625   0.703125 0
  0.156250   0.109375 0
  0.578125   0.890625 0
  0.484375   0.984375 0
  0.062500   0.203125 0
  0.328125   0.718750 0
  0.343750   0.734375 0
  0.343750   0.750000 0
  0.453125   0.500000 0
  0.437500   0.500000 0
  0.234375   0.093750 0
  0.171875   0.375000 0
  0.437500   0.531250 0
  0.468750   0.546875 0
  0.453125   0.546875 0
  0.187500   0.015625 0
  0.187500   0.000000 0
  0.609375   0.781250 0
[...]
CELL_DATA 7648
SCALARS scalar_value float 1
LOOKUP_TABLE default
1.25002e-05
1.37977e-05
1.66104e-05
1.2146e-05
0.0155589
0.0171216
0.0186638
0.0175473
1.31097e-05
1.58678e-05
1.7142e-05
0.00689737
0.00814091
0.00608144
1.95298e-06
1.64768e-06
1.75715e-06
1.26772e-06
2.8508e-09
2.78207e-09
3.50565e-09
2.34531e-09
2.38986e-09
2.2643e-10
2.50322e-10
3.66542e-10
1.97335e-10
6.86832e-05
7.65357e-05
0
0
1.12907e-10
0
1.89728e-10
2.4209e-10
3.15102e-10
2.0983e-10
0
1.05382e-10
1.40155e-10
0
0
3.93529e-05
5.95894e-05
6.43819e-05
0.000949695
0.00115272
0.00137267
3.42566e-10
0.0013661
0.0067916
4.86275e-09
4.25247e-10
5.87502e-10
6.3736e-05
3.33447e-10
8.91654e-05
5.07587e-05
0
1.23273e-10
1.8083e-10
1.25384e-09
1.15849e-09
0.000136476
0.000107692
0
0
3.01689e-10
5.85742e-07
0
1.58193e-07
0
2.13828e-06
4.42221e-06
0.000112941
0
3.83757e-05
0
0.000121506
9.34171e-06
1.33413e-05
0
0
0
0.00271447
2.723e-10
9.64547e-08
8.67518e-08
0.000286156
0
0
0
5.10407e-09
7.43282e-09
0
1.72541e-10
0.000129054
2.60448e-10
0.000158304
0.000207066
6.58166e-06
1.46625e-09
7.61372e-06
1.49741e-05
3.25042e-09
1.83724e-07
1.64271e-06
0.00244599
0.00266526
0
1.23255e-10
4.83824e-06
4.91045e-06
0
8.68471e-09
0
1.17877e-08
5.96362e-09
2.39479e-10
0.0144847
0.015972
0
0
2.25567e-08
0
0
0
0.000320268
0.000418941
0.000268684
0
0.000253496
0
0.00281047
3.42732e-07
0.00299787
4.39141e-05
7.50257e-10
1.62258e-10
0.000880136
0.000150667
0.00103453
0.00114006
0
0.00114858
0.00106635
0.0177762
5.60984e-09
0.00770422
0.000164169
0.000161826
4.79308e-10
6.38732e-10
8.22976e-10
0.006495
0.00509293
0.0065188
1.04729e-10
0.00165088
5.50086e-10
0
2.98452e-09
3.51479e-09
1.41166e-06
0.000942178
0.00121019
0
0.000826331
1.06091e-09
0.0282685
0
0.000697564
0.00160961
0.0023481
3.97691e-06
2.46887e-08
0.0151521
0.000409941
4.25749e-07
0.000490128
0.000638185
6.25806e-07
0.00324638
5.63021e-05
0
7.76779e-09
0.0063813
0
0
9.98331e-05
0
0.000127775
0.000369025
0
0
0.000438009
0.000515072
0.000456085
0
0
0
0.00376103
9.26754e-09
0.00773679
0.00747987
9.24154e-09
7.15919e-10
0.00356517
0.00447428
0.0033688
0
0
1.03564e-10
0
0.000455817
1.43111e-08
0
0.0368467
0
3.35597e-05
7.4018e-05
0.000574973
0.000722958
0
0.000578159
0
1.01647e-05
2.95666e-05
0.000484196
0.000395791
0.0121482
0.00989507
0.000230268
1.67087e-07
0.0120535
0.0132617
0.0139843
0.0138593
0.00016571
0
0.000141376
0.00537851
1.28897e-07
0.00018105
0.000215249
0.000413525
5.55161e-07
0.000367076
0.000458029
0
0.000363167
7.2302e-05
7.13355e-10
9.82994e-10
9.72532e-10
3.99669e-05
6.46446e-08
0.000362164
0.000465211
2.24458e-09
2.8705e-09
2.9146e-09
0.000431264
0
0
0.000345184
0
0.000939344
0
0.00021726
0.00235115
3.03204e-09
0
0.013001
0.00404399
0
0.0305872
0.000315373
7.79839e-08
9.72022e-08
0
2.27358e-05
0.000197105
0.00725074
2.0332e-07
0.000759401
0.00769991
0
0
0.000318019
0
0.00436473
2.0416e-05
0
1.11264e-07
1.13039e-07
0
1.41226e-07
0
9.44174e-05
7.85661e-09
3.0173e-07
0.0119647
0.000182747
1.50704e-09
1.22121e-09
1.11077e-09
1.12026e-08
0.000298078
3.22394e-08
2.23749e-08
0.000358785
0.00500978
0
0.000684681
5.9551e-06
1.17084e-08
0.00059721
8.9327e-09
3.25188e-06
6.11902e-09
1.01031e-09
1.6504e-05
0.0001067
0.000239567
8.46573e-08
1.62741e-08
0.000114789
0.00016776
3.72107e-08
0.000175358
4.16054e-10
0.00100582
9.75584e-06
0.0122269
8.81628e-06
0.0123383
0.00826538
0.00736643
4.42386e-09
5.11702e-05
0.0107601
0.0102362
0
0.0118057
3.98547e-06
5.83411e-06
0.00990827
0
0
0
0
2.91508e-09
0.000481057
0
0.000366976
0
0.0163174
0.0147161
0.0149932
1.11355e-07
8.60263e-08
8.92708e-08
6.4469e-07
0.000178261
0.00055468
0.000231589
0
0
0
0.000160536
4.91236e-07
0
0.00018485
0
0.000322035
0.00274633
0
1.13416e-05
1.18326e-09
8.04927e-08
0.000488451
2.05442e-07
1.42827e-05
0.000593237
1.41485e-06
0.00063162
2.88533e-07
0
0.00294126
0.00283025
1.183e-06
0.00416542
0.00420848
0.00310937
5.43367e-10
4.55099e-10
0.00927667
0.000801235
1.58059e-06
1.34733e-10
0.00287923
0.00017578
6.8389e-06
0.000241908
9.32342e-07
0
7.80804e-05
0.00442051
4.07065e-10
0.00620771
0.000194614
0.000118319
0.00266954
3.4055e-07
3.26284e-05
0
3.2794e-05
0
3.31721e-07
5.93396e-05
5.59477e-07
0.0050642
1.18878e-09
2.3257e-09
2.06166e-09
0.0180069
2.10945e-09
0.000231266
1.12649e-10
0.000128461
1.15934e-08
0
0
0
0
0
0
0.00649128
7.27156e-05
2.5713e-08
4.86054e-05
1.87757e-09
1.68376e-09
0.000375494
2.26347e-09
0.000386856
0.00033079
5.80312e-05
9.6143e-05
0.0108395
1.4795e-08
0
9.99329e-09
7.05674e-05
1.19456e-10
1.54153e-10
1.31443e-10
8.13281e-05
0.000659094
0.00501816
7.21997e-09
2.79048e-05
2.81071e-05
0
0
0
0
0
0
0.000341112
0
1.03193e-07
0
0
1.00585e-07
1.70553e-09
1.35348e-05
0
8.00148e-05
0
5.33685e-08
0
0
0.000142796
0.000191157
0.000252492
0.000189462
1.89893e-08
3.1505e-08
0
1.35758e-08
0
7.89201e-08
8.67049e-05
0
1.20124e-08
0.013301
7.43297e-06
0
0
0.000340788
1.56186e-06
1.21692e-10
0
0.00159647
2.09849e-10
1.62951e-10
1.56991e-10
1.20657e-10
0.0110694
9.85407e-05
1.59911e-10
0
0.000135158
0
0.000273138
1.53716e-10
0
0.000342974
1.2234e-10
0.00122907
0
1.6645e-10
0.000241764
6.92675e-07
0.0272522
0.000679724
7.01506e-07
4.93624e-07
0.000529036
0
0.0101178
0
3.45088e-06
0.0071616
6.40864e-06
0.0056048
2.71264e-06
9.78208e-06
4.01346e-06
1.25208e-05
0
0
0.0051955
3.83419e-07
0.00181154
5.07457e-07
0.000218584
6.54917e-07
4.70276e-07
0.0218039
7.57164e-07
6.34463e-07
4.71643e-06
5.12335e-06
6.82222e-06
0.0013974
2.71167e-10
1.35497e-10
0.0013132
0
0
0
2.02543e-05
4.6938e-07
3.82369e-09
2.28392e-05
1.90485e-05
3.35088e-05
1.54069e-09
0.000316177
5.41416e-07
0.000528444
0
2.37358e-07
0.00340489
0
0.00144723
4.03537e-09
2.93307e-06
2.80988e-06
0
0
0.000335053
0
5.07888e-06
0.000785091
0
0.00177528
0.0022086
0
1.09116e-10
0
0.0153747
1.66011e-10
6.86535e-07
0.000152879
0
0.000282001
0
0
0
0
0.000144851
0.00456115
0
0.0118295
4.30127e-07
0.0223897
0.0229231
0.024325
0.000466738
0.000406896
0.000434989
2.19633e-09
0.00234655
1.82882e-09
1.12713e-10
0
0.000419059
0
0
0
0.00743283
0
0
0
0
0
0
0.00043851
0
0
0.0174958
6.80416e-08
0.0204194
0.000213029
8.22787e-07
6.99428e-07
0.005794
0.00409748
3.10768e-06
0.00870033
0.000435681
0.000541585
0.004238
0
0
0
1.59565e-07
0.000397882
0.000458235
0
0
1.85703e-07
0
1.44389e-07
5.33372e-07
9.8159e-08
3.95561e-05
4.03432e-05
7.36621e-08
0
1.37501e-09
0.00459484
0
1.53203e-09
0
0
0
3.41208e-10
0.0144389
1.00075e-10
0.0136362
1.35915e-08
5.21308e-06
5.6985e-06
7.74237e-06
0.00193545
0.00202404
0.00220938
2.32755e-05
0
2.00942e-06
0.000673699
0.00179001
0.00069377
0
0.00333196
0.000825044
0.000917243
0
3.52946e-06
0.000881889
0.00115001
5.54562e-06
1.37988e-09
0.00268438
0.00041414
0.000328585
0.000799046
8.70145e-05
8.84133e-08
5.1074e-05
3.84081e-08
3.74831e-05
4.95238e-05
0.00463924
0.00524858
0.00947102
0.0105317
0.0111178
0.00013112
8.07416e-05
0.00776545
0.00854384
1.08983e-08
6.95052e-08
0.00815438
0.00962671
4.18853e-05
4.66553e-05
3.81954e-05
0.0053222
0.00592797
0.000298205
0.00681201
1.88915e-05
2.2425e-05
2.87794e-05
0.0035126
0.00394907
0.00459116
6.8905e-10
4.21463e-10
2.15741e-06
0.00257311
0.00242391
0.00301088
0.000507604
0.00269833
0.00341329
0.00334059
2.17773e-10
8.79267e-06
8.59775e-08
1.20579e-05
1.80825e-05
1.57858e-09
0.00186433
0.0021881
0.00260361
0
0
0
0
3.17219e-05
2.26728e-05
0
0.000756845
3.69599e-08
0
0
7.86088e-07
0
0.00372321
0.00331814
6.26382e-07
2.08163e-07
2.33575e-07
1.76819e-07
2.91512e-07
2.53027e-07
2.13754e-07
4.79414e-07
0
7.32943e-07
7.68567e-07
2.13549e-05
3.03413e-05
5.68224e-08
1.04139e-07
0
0.00139446
0
1.29091e-05
1.64404e-05
0.00155818
2.38989e-07
2.18529e-07
0
1.5786e-08
1.61295e-09
0.000833831
3.51428e-08
7.5767e-10
0.000157537
0
0.000248918
0
0
0.000206118
6.94222e-09
1.36609e-05
0
0.000213682
2.43889e-05
2.53868e-08
9.82982e-09
1.70758e-05
0
1.3652e-07
7.74129e-05
1.20655e-07
1.35757e-07
2.95385e-05
1.37398e-07
0.000559286
0.000641358
0
0.000178855
0.000741081
0
0
0.0213785
0.000673472
0.000179469
0
0.000219489
0
9.04013e-08
0.000342872
0.000364949
0.000291457
1.18808e-07
1.06261e-07
0.00701804
0.000182116
0.000144707
2.95362e-10
4.74738e-05
5.9394e-05
0
1.27529e-08
0.00964051
0.000149594
1.42858e-10
1.50383e-09
0.00121657
0.00314179
1.19563e-06
0.000456576
0.000512373
2.57347e-06
0.000528825
0
6.16748e-05
2.3019e-07
3.57259e-06
0.000729218
3.96404e-10
0.00085186
0.00499044
0
0
0.00227804
5.93898e-10
0.000508077
2.74617e-09
6.73042e-09
4.11051e-05
6.17398e-09
0
0
0
5.72231e-09
3.01479e-09
0
0.000163548
0
6.13529e-05
1.99813e-09
2.36861e-09
0
1.38366e-08
6.60125e-05
0.00010496
3.077e-08
0
0
1.39268e-05
1.71385e-05
1.28622e-05
0.00536107
2.01792e-05
0
0
1.67557e-05
2.36836e-05
9.25104e-08
1.3976e-05
0.000171279
0
0
7.86208e-10
0.000294596
8.75079e-10
5.243e-10
2.34749e-05
1.29467e-08
5.2799e-09
1.60135e-05
0.00268589
0.00348707
0
5.62011e-10
0.0021318
7.2074e-10
6.9126e-10
1.10769e-09
0.0165141
3.4132e-08
6.60352e-10
2.88323e-10
4.4954e-08
0.000262842
9.73854e-10
0.000319946
0.000221693
0.00878396
0
5.61764e-05
6.75636e-05
9.12932e-05
0.000143391
9.41405e-08
8.90305e-05
4.70747e-08
2.18762e-08
5.47447e-05
5.1203e-05
1.95115e-09
3.44972e-05
8.53621e-09
4.00637e-05
0.00602217
0
4.94207e-06
0
3.17133e-06
3.8208e-10
7.31819e-10
7.18031e-06
2.21625e-08
2.20336e-06
9.259e-05
0
0
1.01246e-10
0.00634183
0.00775923
0
0.000847751
0
0
0
1.19241e-05
3.96319e-09
0.00278648
0
0.00318496
2.46929e-09
0
3.40452e-05
0.000280364
0.0226285
0.0143767
0.0213972
0.0262634
0.000728855
0.0206235
0.00462072
9.83337e-09
0.00375429
0.000972842
4.05587e-09
0.00316569
0.00316469
1.53307e-10
7.78548e-05
6.35357e-09
0
1.75454e-05
0.000412237
3.57856e-07
1.85202e-07
0.000318049
0.0167034
1.52984e-06
0
0.000228956
7.42274e-09
0.00275458
0.0159227
0.000526884
0.0184567
0.000832314
1.10779e-06
6.09056e-05
0.0183393
0.00356582
3.45445e-05
0.000424349
3.25364e-07
4.87221e-07
0.00298393
2.35602e-09
4.81146e-05
1.85648e-07
1.66019e-05
7.19745e-09
0.00619221
5.01947e-05
4.32774e-08
1.7567e-08
1.76681e-05
0.00109997
0
0.0191371
0
0
0
4.81782e-05
0
2.43234e-05
8.61191e-08
1.65446e-05
0.0206699
5.30388e-08
0.000351966
3.20481e-05
1.59456e-08
0
0
1.13916e-10
7.29488e-06
0
0
0
1.17148e-09
0.0181561
1.36741e-07
0.0285569
0.00317992
0.00612793
2.4295e-08
2.31338e-09
0.00146093
0.00311426
2.35712e-09
0.0219347
0.00984894
3.42981e-08
1.01948e-09
0
1.09742e-09
1.64799e-08
1.57772e-05
0.000927117
0.0193916
0.00144607
6.0637e-10
7.74783e-10
9.68983e-10
7.01737e-10
0.000527783
0.0205881
0.000440791
0
0.000559405
0.0231756
0
9.60978e-07
0.00457953
1.72959e-10
0.0218419
0.00284459
0.000981613
0
2.52214e-10
3.469e-07
0.000507484
0
0.000404579
0
0.00884057
1.34862e-07
1.76263e-05
0.000411222
0
0
4.29969e-10
1.21656e-06
0.000422441
2.49726e-07
0
0.000384979
0.000604024
1.55591e-10
4.47476e-08
0.00026311
0.000355646
1.06767e-07
0
1.79163e-06
0.000295788
0
8.31813e-07
0
4.83862e-10
7.47654e-10
0
3.65188e-09
0
4.2283e-06
0.00024165
0.000267355
0
3.7716e-05
1.58961e-10
1.15146e-06
0.00023364
1.7683e-08
3.54479e-10
0.0108256
5.33291e-07
0
4.62605e-05
0
0.00594848
5.12144e-07
3.68331e-06
0.000770728
1.10498e-09
0.000334797
1.02374e-09
0.00158742
2.44754e-06
2.44319e-10
0
0.00708937
0
1.85097e-10
0
0.00519658
0
0.00289513
2.69899e-09
1.19825e-05
2.20449e-05
6.02417e-09
2.28386e-09
0
3.50158e-10
0.000236778
1.26329e-08
0.00433975
0.00272485
5.90527e-08
1.10348e-05
3.8994e-09
1.48743e-05
1.76388e-05
0.0016649
4.96095e-06
1.15162e-05
2.97422e-09
0.00229241
2.22095e-05
3.58643e-06
0.00194412
5.33791e-06
0
3.37257e-05
0.0022653
0
7.92144e-06
1.28822e-10
0.00798207
0.000743929
0
2.43677e-09
0.00208525
0.00252401
2.16186e-09
3.52998e-09
1.65905e-06
8.43559e-06
0
0.00138105
2.25222e-06
9.34888e-06
1.69091e-09
7.9174e-09
0
6.28569e-08
0.000722567
0
3.33969e-06
0
0.00748997
0.000118352
0
6.96023e-06
0
0.000118984
0.00082887
0.0097295
8.32665e-05
0.00248855
0
1.95117e-09
6.34307e-07
1.90804e-07
0
0
0
1.07331e-10
2.26272e-09
0.0019445
0
0
0.00111321
0.000813669
0
0.00217387
8.11669e-06
0.00142368
0.00155362
0.000425246
0.00361717
0.000210513
0.0391277
3.78462e-06
0.000908267
1.20746e-10
0.0258025
1.41412e-08
0
0.000336172
4.96227e-08
7.86454e-08
0.000601396
6.26263e-10
0.000404447
2.63697e-08
4.61892e-08
0
2.8823e-10
0.000662615
0.0101443
1.54435e-08
0.000245978
0.00455981
1.11315e-05
0
0.0127105
3.87233e-06
0
0.000528022
0.000922941
0.000526412
3.48545e-05
0.000387776
0.000103015
1.18766e-10
0.000538215
4.15601e-10
1.75057e-10
1.51305e-06
6.98017e-05
0
0.0358959
2.67031e-07
1.30251e-05
1.10874e-06
0
0.00222219
3.26537e-05
0
0
3.6797e-07
0
0
0
0.00376007
6.16128e-07
2.04236e-05
0
0
1.15874e-05
0
0
0.00224828
0
0.000355883
0
0
2.17406e-09
1.04474e-05
1.81583e-05
4.9213e-09
0
0
0.000102667
0.000112391
2.01066e-07
0.000266828
0.000422241
3.18632e-07
0
0
5.33936e-05
2.80252e-05
0
0
0
7.28868e-05
1.27501e-07
9.55951e-09
5.64246e-08
0
0
0
0
0
1.06954e-05
1.4945e-07
0
1.29622e-07
0.000426267
3.08116e-07
2.45745e-07
0.00878015
0.0023642
2.78113e-07
0
4.40223e-06
0
0.00249873
0
6.33436e-08
0.000393528
1.55041e-07
1.38615e-10
0.00150194
5.15428e-10
0
0.000128967
1.61685e-07
0.0120565
4.96359e-06
0.0131726
0.00263549
2.80252e-07
1.77339e-09
4.77055e-09
0.00345292
0.00366877
5.22407e-06
9.81268e-10
3.25844e-05
9.86778e-09
0
0
2.17769e-10
4.58188e-07
0.000256198
0.000280662
9.0986e-07
9.44989e-05
2.99528e-09
0
0.012997
0.00237652
0.000257189
0
0.00176464
6.00539e-07
0.0249092
0
0.000225575
5.66104e-05
0.00668162
0.000542131
0
0.000108254
3.32486e-09
0.00613165
9.68885e-05
0.00566018
0.000279125
1.08407e-10
0
0
2.67875e-08
0.000108833
2.23339e-06
6.96032e-08
0
0
0.0018732
4.95227e-10
0.003737
0.00270056
0.00230276
0.00240412
0.00514587
5.11491e-08
0
0.0211585
0.00465516
0
7.95852e-09
0.000178948
0.000272237
1.8429e-08
0
0.00595589
7.4185e-07
0.000170768
0
0.0111148
0
0
5.83266e-08
0.0071025
0
0.0051935
0.00012765
2.33035e-07
0.024442
3.42212e-05
0.000102597
0
0.0107056
0.00142501
0.00119495
0.00353174
0.00299571
0.000227464
2.73669e-05
0.00555761
0.0106043
0
0.0194113
0
3.2473e-07
0.00572891
0.00433059
2.68916e-09
0.00718702
0.023697
1.91373e-07
0.000248506
0.0002493
2.66281e-07
0.00746423
0.00224474
1.94451e-06
1.37465e-05
0.00146384
0.0292095
0
0.00197001
2.21663e-10
4.7146e-08
0
0.000674253
4.12763e-08
0.00474098
2.84951e-10
0.000457761
0
9.05718e-05
0.00125863
9.16779e-06
5.51721e-06
0.00108032
4.69162e-06
0.00620193
0.00057357
0
0.00671985
0.000190833
0.00226502
3.19998e-07
0.000240138
0.000412516
0
0.0198767
0.000195393
1.33557e-08
4.35685e-07
0.00370222
0
0.0007438
4.62507e-09
0.00328385
0.00570153
4.11013e-07
2.3403e-05
4.03324e-09
1.34811e-08
0.000462602
0.000624928
0.0376577
0
0.000419224
0.000826758
0.00154701
0.0295117
3.92514e-06
0.0111124
7.02595e-09
2.39903e-09
0.000169946
7.48135e-08
0.000282654
2.37835e-08
0.00585217
0
4.56033e-07
0.00731639
0.000428129
0
0.000582343
4.97509e-05
0.0048325
0.00754628
0
3.92634e-05
6.07718e-08
0.000454795
0
0.00048804
3.8697e-07
5.61818e-10
2.51095e-06
5.81713e-06
1.22425e-09
0.0250381
4.71933e-10
4.15209e-07
0.000394654
0
0.00431422
0.0265817
0.000213754
0
5.43408e-07
0.0266889
9.0048e-10
0.00415166
4.92869e-10
5.72113e-10
0.00105192
0.00989854
5.8763e-07
0.000288318
0
0
1.89485e-08
2.11976e-06
0.000411236
0
0.000238825
0.000351301
8.15682e-08
0
3.14283e-09
3.88105e-08
4.82429e-09
0.00532438
1.15119e-09
0.0273952
5.83822e-10
3.6263e-10
0
2.5653e-09
0
0
2.02082e-05
0.00182853
9.99374e-09
0
0.0107314
6.91381e-08
3.5298e-09
5.31904e-08
0
0.00126723
0.00536505
1.49894e-07
0.000155344
0.0232369
1.2209e-08
2.03979e-08
0
4.8035e-05
1.14137e-09
5.15693e-10
1.58347e-05
0.00582343
1.22717e-08
0.000694984
1.00319e-08
0.000184402
0.00194054
0.0123303
0
0.00010751
0.0242976
0.0012913
0.000312072
2.334e-07
0.030319
0.00608354
0.000240973
1.43901e-05
0.00760509
2.43854e-08
4.38753e-08
4.40897e-05
9.19765e-07
0.000247846
0
2.42936e-06
0.000277473
4.9927e-06
0.000525533
0
0
1.95055e-05
0.00103803
3.19663e-06
1.06501e-06
0.000729081
0.000496246
0.0340065
0.0020652
4.0412e-07
0.000141091
0.0135755
0.00993797
0.000188268
0
0.00188357
2.67523e-07
0.000364947
0
0.000130718
4.15854e-09
0.00920368
2.0392e-08
0.000228872
1.33766e-08
0
0.000308301
1.54036e-09
8.71849e-05
0.00874868
1.31328e-09
5.08869e-07
5.25352e-09
0.00201595
6.6288e-08
0
7.49033e-10
0.00341406
0.00168289
0.00197041
0.00658013
0.000699721
1.22675e-08
0.00502904
0.00484005
0.0320077
0.00191219
0.00107054
0
7.61767e-07
0.000166543
0.00778918
6.88268e-06
0.000889527
0.00170511
0.0233172
0
0
0.000559597
4.85895e-07
2.87312e-07
0.000371874
0.00155993
1.60289e-09
9.97354e-06
0.0265568
0.0283077
0.00129178
0.00151854
1.76343e-10
0.0295388
5.0955e-09
0.00173308
2.02752e-10
0.0305938
0
0.00418085
0
0.0202833
0.000366622
3.51882e-07
1.87998e-08
4.2218e-05
3.67806e-05
1.72324e-07
3.8373e-05
0
0.00495904
1.19075e-07
0
0
0.0205259
2.13013e-05
0
0.00101086
4.61609e-10
0
0
0.000201475
0
0
5.20057e-05
0.000102937
3.69581e-09
2.58968e-05
8.2311e-09
0
5.99347e-08
2.44562e-09
3.85295e-09
0.000238859
8.6241e-10
0.00164002
1.28827e-09
0
0
9.05735e-05
4.15618e-07
1.31735e-09
3.35352e-10
0.000884852
0
0.00115848
0
0.000383087
0.0013904
3.11907e-10
0.000331525
6.18657e-06
0
0
7.66384e-05
0.0318309
3.03616e-10
0.000450592
1.25107e-07
0
1.83886e-05
0.00207134
1.8972e-05
0.00226479
2.03134e-05
0.00165731
2.72965e-06
0.00180636
1.5717e-05
0
2.20623e-10
6.43406e-09
0.0052436
4.84081e-08
5.19971e-09
0.00414378
1.59623e-10
0.01166
0.000677555
0.0100546
1.59023e-05
0
0
0.000356684
0.00108242
0
1.47599e-07
1.85278e-07
0.00361166
0.00939385
7.21907e-05
0.000124761
0.000143576
1.53776e-07
1.50589e-06
0
0
0.00686842
0
0.00017211
0.00108133
4.48908e-10
0
0.000266717
0.0077081
0.00138362
4.01755e-10
6.60231e-10
5.18564e-10
5.85775e-10
3.94684e-06
3.54529e-10
3.95326e-06
4.98485e-07
0.013016
0
0.00240422
4.57543e-10
5.65886e-06
5.89712e-10
0
6.93732e-10
0.027426
0.00200773
7.57463e-10
2.85333e-06
1.66502e-09
2.05337e-06
0.00346557
3.22313e-10
2.28982e-09
2.93121e-05
2.96903e-05
1.22683e-07
2.50572e-05
2.09869e-10
0.000473134
2.93242e-05
0.000166664
6.68139e-09
3.00737e-09
9.82321e-05
0.00204197
5.48076e-09
0
0
2.01254e-09
3.46374e-08
5.06598e-09
0.000101441
0.00331799
0.00294685
0
0.000648207
1.68829e-05
1.35645e-05
0.00578182
0
1.61122e-05
0
0.000406774
0.00213451
1.86918e-09
0
2.6581e-10
0
0.00353159
0.00317781
9.80889e-06
0
0
2.06929e-05
6.71391e-09
6.13636e-09
0.00394723
0.000910443
2.74348e-05
0
8.58869e-10
3.31903e-05
1.70329e-06
0.0207494
0.0133985
0.0227966
0
0
0
0
3.94681e-10
0
1.36142e-05
1.35446e-05
0.000911478
0.0239302
0.000340746
0.000288559
3.47558e-08
0
3.7709e-08
3.69787e-07
5.71064e-09
1.19098e-09
0.00516333
0
5.76143e-06
8.94437e-06
0.00623488
2.21188e-07
7.24302e-06
0.00411395
0
0
1.86992e-10
0.00250661
0.0025899
1.07651e-09
0
0.00220885
0
0.00191475
0.00736894
0.00285015
0.00277921
0
1.46955e-10
0.000298271
6.96372e-05
2.39624e-07
0.000150137
0
0
0.000761749
5.94652e-08
8.80967e-08
6.31317e-08
0.00482822
0
0.00492253
0.00576076
8.8422e-09
0
0
6.78885e-07
1.61432e-10
0
0.00987977
0.000923308
6.82626e-05
5.38652e-05
1.16868e-07
2.55384e-09
9.47773e-05
0.00014261
5.78738e-09
0.0109275
6.40784e-05
8.23588e-08
3.28842e-08
3.62207e-05
4.89908e-05
0.000100492
1.24197e-09
2.12154e-09
0
0.000398178
0
3.75049e-05
1.40635e-09
4.80045e-05
2.5239e-05
4.06966e-09
7.66307e-09
0.000112143
0
4.21333e-05
0.000523685
5.49405e-05
8.02478e-07
0
0.00518588
0.00571267
5.80923e-05
0.0151089
0.006388
0
6.91445e-05
4.85178e-05
0.0159852
0.00350852
2.36879e-08
0.00315608
1.73275e-08
5.25721e-09
8.56765e-09
0.0112244
7.35304e-09
0.00992035
2.02215e-07
0.00183916
9.486e-10
4.58269e-07
0
0.00101738
2.91369e-07
9.27441e-09
0.000842155
2.4908e-07
0.00154268
1.07225e-06
0.00485658
1.77123e-06
8.90021e-07
1.2704e-09
0.00371186
7.40696e-07
3.51547e-07
0.00274966
3.28863e-07
0
0.000798989
2.03105e-07
0.000689226
6.85779e-08
0.000919749
1.66534e-07
3.43255e-06
0.0369892
2.03309e-07
0.00345071
0
0.00412044
0
1.56219e-07
0.00769012
2.10967e-07
0.00180438
2.13785e-07
0.00931827
0.00192622
4.10801e-06
2.28385e-06
7.40404e-06
0
1.91819e-06
0.000322104
0.00862508
5.73393e-07
0.000568656
0.0123508