# vtk DataFile Version 2.0
Unstructured Grid by M++
ASCII
DATASET UNSTRUCTURED_GRID
POINTS 4072 float
  0.609375   0.843750 0
  0.562500   0.843750 0
  0.531250   0.843750 0
  0.875000   0.828125 0
  0.984375   0.828125 0
  0.953125   0.828125 0
  0.937500   0.828125 0
  0.843750   0.828125 0
  0.812500   0.828125 0
  0.781250   0.828125 0
  0.765625   0.828125 0
  0.734375   0.828125 0
  0.703125   0.828125 0
  0.671875   0.828125 0
  0.640625   0.828125 0
  0.609375   0.828125 0
  0.593750   0.828125 0
  0.562500   0.828125 0
  0.546875   0.828125 0
  0.531250   0.828125 0
  0.515625   0.828125 0
  0.968750   0.812500 0
  0.937500   0.812500 0
  0.921875   0.812500 0
  0.890625   0.812500 0
  0.859375   0.812500 0
  0.828125   0.812500 0
  0.796875   0.812500 0
  0.765625   0.812500 0
  0.750000   0.812500 0
  0.718750   0.812500 0
  0.687500   0.812500 0
  0.656250   0.812500 0
  0.625000   0.812500 0
  0.593750   0.812500 0
  0.578125   0.812500 0
  0.546875   0.812500 0
  0.531250   0.812500 0
  0.515625   0.812500 0
  0.984375   0.796875 0
  0.562500   0.015625 0
  0.953125   0.796875 0
  0.921875   0.796875 0
  0.906250   0.796875 0
  0.875000   0.796875 0
  0.843750   0.796875 0
  0.812500   0.796875 0
  0.781250   0.796875 0
  0.750000   0.796875 0
  0.734375   0.796875 0
  0.703125   0.796875 0
  0.671875   0.796875 0
  0.640625   0.796875 0
  0.609375   0.796875 0
  0.578125   0.796875 0
  0.562500   0.796875 0
  0.531250   0.796875 0
  0.515625   0.796875 0
  0.968750   0.781250 0
  0.546875   0.000000 0
  0.937500   0.781250 0
  0.906250   0.781250 0
  0.890625   0.781250 0
  0.859375   0.781250 0
  0.828125   0.781250 0
  0.796875   0.781250 0
  0.765625   0.781250 0
  0.734375   0.781250 0
  0.718750   0.781250 0
  0.687500   0.781250 0
  0.656250   0.781250 0
  0.625000   0.781250 0
  0.593750   0.781250 0
  0.562500   0.781250 0
  0.546875   0.781250 0
  0.515625   0.781250 0
  0.984375   0.765625 0
  0.953125   0.765625 0
  0.921875   0.765625 0
  0.890625   0.765625 0
  0.875000   0.765625 0
  0.843750   0.765625 0
  0.812500   0.765625 0
  0.781250   0.765625 0
  0.750000   0.765625 0
  0.718750   0.765625 0
  0.703125   0.765625 0
  0.671875   0.765625 0
  0.640625   0.765625 0
  0.609375   0.765625 0
  0.578125   0.765625 0
  0.593750   0.750000 0
  0.562500   0.765625 0
  0.546875   0.765625 0
  0.531250   0.765625 0
  0.562500   0.750000 0
  0.968750   0.750000 0
  0.937500   0.750000 0
  0.906250   0.750000 0
  0.875000   0.750000 0
  0.859375   0.750000 0
  0.828125   0.750000 0
  0.796875   0.750000 0
  0.765625   0.750000 0
  0.734375   0.750000 0
  0.703125   0.750000 0
  0.687500   0.750000 0
  0.671875   0.750000 0
  0.656250   0.750000 0
  0.625000   0.750000 0
  0.546875   0.750000 0
  0.531250   0.750000 0
  0.515625   0.750000 0
  0.562500   0.734375 0
  0.984375   0.734375 0
  0.953125   0.734375 0
  0.921875   0.734375 0
  0.890625   0.734375 0
  0.859375   0.734375 0
  0.843750   0.734375 0
  0.812500   0.734375 0
  0.781250   0.734375 0
  0.750000   0.734375 0
  0.718750   0.734375 0
  0.687500   0.734375 0
  0.671875   0.734375 0
  0.656250   0.734375 0
  0.640625   0.734375 0
  0.546875   0.734375 0
  0.531250   0.734375 0
  0.515625   0.734375 0
  0.562500   0.718750 0
  0.968750   0.718750 0
  0.937500   0.718750 0
  0.906250   0.718750 0
  0.875000   0.718750 0
  0.843750   0.718750 0
  0.796875   0.718750 0
  0.765625   0.718750 0
  0.734375   0.718750 0
  0.703125   0.718750 0
  0.687500   0.718750 0
  0.671875   0.718750 0
  0.656250   0.718750 0
  0.625000   0.718750 0
  0.546875   0.718750 0
  0.531250   0.718750 0
  0.515625   0.718750 0
  0.562500   0.703125 0
  0.953125   0.703125 0
  0.921875   0.703125 0
  0.890625   0.703125 0
  0.859375   0.703125 0
  0.828125   0.703125 0
  0.781250   0.703125 0
  0.750000   0.703125 0
  0.718750   0.703125 0
  0.687500   0.703125 0
  0.656250   0.703125 0
  0.546875   0.703125 0
  0.531250   0.703125 0
  0.515625   0.703125 0
  0.984375   0.687500 0
  0.937500   0.687500 0
  0.921875   0.687500 0
  0.906250   0.687500 0
  0.875000   0.687500 0
  0.843750   0.687500 0
  0.812500   0.687500 0
  0.765625   0.687500 0
  0.734375   0.687500 0
  0.703125   0.687500 0
  0.671875   0.687500 0
  0.640625   0.687500 0
  0.593750   0.687500 0
  0.562500   0.687500 0
  0.546875   0.687500 0
  0.531250   0.687500 0
  0.515625   0.687500 0
  0.968750   0.671875 0
  0.937500   0.671875 0
  0.921875   0.671875 0
  0.906250   0.671875 0
  0.890625   0.671875 0
  0.859375   0.671875 0
  0.828125   0.671875 0
  0.796875   0.671875 0
  0.765625   0.671875 0
  0.750000   0.671875 0
  0.718750   0.671875 0
  0.687500   0.671875 0
  0.656250   0.671875 0
  0.625000   0.671875 0
  0.593750   0.671875 0
  0.578125   0.671875 0
  0.546875   0.671875 0
  0.531250   0.671875 0
  0.515625   0.671875 0
  0.984375   0.656250 0
  0.953125   0.656250 0
  0.937500   0.656250 0
  0.921875   0.656250 0
  0.906250   0.656250 0
  0.875000   0.656250 0
  0.843750   0.656250 0
  0.812500   0.656250 0
  0.781250   0.656250 0
  0.750000   0.656250 0
  0.734375   0.656250 0
  0.703125   0.656250 0
  0.671875   0.656250 0
  0.640625   0.656250 0
  0.609375   0.656250 0
  0.578125   0.656250 0
  0.562500   0.656250 0
  0.531250   0.656250 0
  0.515625   0.656250 0
  0.968750   0.640625 0
  0.937500   0.640625 0
  0.906250   0.640625 0
  0.890625   0.640625 0
  0.859375   0.640625 0
  0.828125   0.640625 0
  0.796875   0.640625 0
  0.765625   0.640625 0
  0.734375   0.640625 0
  0.718750   0.640625 0
  0.687500   0.640625 0
  0.656250   0.640625 0
  0.625000   0.640625 0
  0.593750   0.640625 0
  0.562500   0.640625 0
  0.546875   0.640625 0
  0.515625   0.640625 0
  0.984375   0.625000 0
  0.953125   0.625000 0
  0.921875   0.625000 0
  0.890625   0.625000 0
  0.875000   0.625000 0
  0.843750   0.625000 0
  0.812500   0.625000 0
  0.781250   0.625000 0
  0.750000   0.625000 0
  0.734375   0.625000 0
  0.718750   0.625000 0
  0.703125   0.625000 0
  0.671875   0.625000 0
  0.640625   0.625000 0
  0.609375   0.625000 0
  0.578125   0.625000 0
  0.562500   0.625000 0
  0.546875   0.625000 0
  0.531250   0.625000 0
  0.968750   0.609375 0
  0.937500   0.609375 0
  0.906250   0.609375 0
  0.875000   0.609375 0
  0.859375   0.609375 0
  0.828125   0.609375 0
  0.796875   0.609375 0
  0.765625   0.609375 0
  0.750000   0.609375 0
  0.734375   0.609375 0
  0.718750   0.609375 0
  0.703125   0.609375 0
  0.687500   0.609375 0
  0.656250   0.609375 0
  0.625000   0.609375 0
  0.593750   0.609375 0
  0.562500   0.609375 0
  0.546875   0.609375 0
  0.531250   0.609375 0
  0.515625   0.609375 0
  0.984375   0.593750 0
  0.953125   0.593750 0
  0.921875   0.593750 0
  0.890625   0.593750 0
  0.859375   0.593750 0
  0.843750   0.593750 0
  0.812500   0.593750 0
  0.781250   0.593750 0
  0.750000   0.593750 0
  0.734375   0.593750 0
  0.718750   0.593750 0
  0.687500   0.593750 0
  0.671875   0.593750 0
  0.640625   0.593750 0
  0.609375   0.593750 0
  0.578125   0.593750 0
  0.562500   0.593750 0
  0.546875   0.593750 0
  0.531250   0.593750 0
  0.515625   0.593750 0
  0.968750   0.578125 0
  0.937500   0.578125 0
  0.906250   0.578125 0
  0.875000   0.578125 0
  0.890625   0.562500 0
  0.843750   0.578125 0
  0.828125   0.578125 0
  0.796875   0.578125 0
  0.765625   0.578125 0
  0.734375   0.578125 0
  0.703125   0.578125 0
  0.671875   0.578125 0
  0.656250   0.578125 0
  0.656250   0.562500 0
  0.625000   0.578125 0
  0.640625   0.562500 0
  0.593750   0.578125 0
  0.562500   0.578125 0
  0.546875   0.578125 0
  0.531250   0.578125 0
  0.515625   0.578125 0
  0.859375   0.562500 0
  0.828125   0.562500 0
  0.781250   0.562500 0
  0.750000   0.562500 0
  0.718750   0.562500 0
  0.687500   0.562500 0
  0.609375   0.562500 0
  0.578125   0.562500 0
  0.562500   0.562500 0
  0.546875   0.562500 0
  0.531250   0.562500 0
  0.515625   0.562500 0
  1.000000   0.812500 0
  0.578125   0.031250 0
  0.875000   0.546875 0
  0.625000   0.546875 0
  0.218750   0.000000 0
  0.640625   0.781250 0
  0.828125   0.093750 0
  0.031250   0.531250 0
  0.296875   0.328125 0
  0.296875   0.312500 0
  0.281250   0.312500 0
  0.765625   0.312500 0
  0.031250   0.859375 0
  0.093750   0.265625 0
  0.109375   0.250000 0
  0.187500   0.671875 0
  0.421875   0.640625 0
  0.031250   0.062500 0
  0.140625   0.125000 0
  0.562500   0.906250 0
  0.125000   0.437500 0
  0.203125   0.937500 0
  0.125000   0.421875 0
  0.140625   0.406250 0
  0.093750   0.437500 0
  0.109375   0.421875 0
  0.093750   0.421875 0
  0.109375   0.406250 0
  0.328125   0.125000 0
  0.750000   0.906250 0
  0.328125   0.109375 0
  0.750000   0.890625 0
  0.312500   0.125000 0
  0.734375   0.906250 0
  0.281250   0.343750 0
  0.265625   0.359375 0
  0.500000   0.796875 0
  0.078125   0.015625 0
  0.062500   0.015625 0
  0.484375   0.796875 0
  0.484375   0.781250 0
  0.062500   0.000000 0
  0.015625   0.250000 0
  0.062500   0.046875 0
  0.484375   0.828125 0
  0.484375   0.812500 0
  0.062500   0.031250 0
  0.281250   0.671875 0
  0.062500   0.234375 0
  0.328125   0.765625 0
  0.312500   0.750000 0
  0.015625   0.671875 0
  0.781250   0.187500 0
  0.015625   0.265625 0
  0.453125   0.250000 0
  0.453125   0.234375 0
  0.031250   0.265625 0
  0.046875   0.250000 0
  0.093750   0.015625 0
  0.265625   0.656250 0
  0.734375   0.281250 0
  0.156250   0.015625 0
  0.062500   0.265625 0
  0.046875   0.281250 0
  0.031250   0.281250 0
  0.343750   0.781250 0
  0.328125   0.781250 0
  0.265625   0.687500 0
  0.265625   0.703125 0
  0.156250   0.109375 0
  0.578125   0.890625 0
  0.484375   0.984375 0
  0.062500   0.203125 0
  0.328125   0.718750 0
  0.343750   0.734375 0
  0.343750   0.750000 0
  0.453125   0.500000 0
  0.437500   0.500000 0
  0.234375   0.093750 0
  0.171875   0.375000 0
  0.437500   0.531250 0
  0.468750   0.546875 0
  0.453125   0.546875 0
  0.187500   0.015625 0
  0.187500   0.000000 0
  0.609375   0.781250 0
[...]
CELL_DATA 7648
SCALARS scalar_value float 1
LOOKUP_TABLE default
4.05531e-07
4.50175e-07
5.46152e-07
3.94343e-07
0.00228088
0.00257616
0.00278384
0.00270367
4.27781e-07
5.21825e-07
5.6488e-07
0.00104625
0.00130387
0.00095189
5.6369e-08
4.69413e-08
5.00652e-08
3.55575e-08
0
0
0
0
0
0
0
0
0
3.09926e-06
3.51927e-06
0
0
0
0
0
0
0
0
0
0
0
0
0
2.27802e-06
3.64011e-06
4.0823e-06
6.59432e-05
8.16195e-05
9.70948e-05
0
8.99847e-05
0.000594835
1.3335e-10
0
0
5.87124e-06
0
8.48183e-06
4.82932e-06
0
0
0
0
0
1.44996e-05
1.12327e-05
0
0
0
1.86999e-08
0
3.96052e-09
0
7.9904e-08
1.74601e-07
1.03879e-05
0
1.55308e-06
0
1.19696e-05
3.84662e-07
5.68636e-07
0
0
0
0.000224052
0
2.37198e-09
2.12833e-09
3.56942e-05
0
0
0
1.17386e-10
1.75983e-10
0
0
9.79613e-06
0
1.16811e-05
1.56524e-05
2.69503e-07
0
3.20072e-07
6.5518e-07
0
5.82287e-09
5.14679e-08
0.000203682
0.000246961
0
0
4.00593e-07
4.15281e-07
0
2.00406e-10
0
2.79327e-10
1.34715e-10
0
0.00219517
0.00248398
0
0
6.40112e-10
0
0
0
1.58908e-05
2.14051e-05
1.34986e-05
0
1.71357e-05
0
0.000368865
8.78529e-09
0.000419573
1.52267e-06
0
0
6.34842e-05
1.43236e-05
7.60258e-05
8.35682e-05
0
8.59981e-05
7.26405e-05
0.002897
1.57834e-10
0.000719199
1.88224e-05
1.90759e-05
0
0
0
0.00171258
0.0013443
0.000801906
0
0.000105027
0
0
0
0
4.92151e-08
6.07883e-05
8.1033e-05
0
5.42749e-05
0
0.00390154
0
3.4998e-05
0.000129273
0.000580223
3.29305e-07
9.11448e-10
0.00197578
2.51013e-05
1.2947e-08
2.98854e-05
4.04126e-05
1.97519e-08
0.000275461
2.44489e-06
0
2.05108e-10
0.000514276
0
0
4.85423e-06
0
6.60435e-06
3.6179e-05
0
0
4.40493e-05
5.12698e-05
4.71542e-05
0
0
0
0.000377906
2.37195e-10
0.000653877
0.000637749
2.49243e-10
0
0.000513288
0.000682647
0.000500065
0
0
0
0
2.13113e-05
3.51173e-10
0
0.00556293
0
2.35125e-06
5.14765e-06
2.88939e-05
3.75063e-05
0
2.97977e-05
0
7.36482e-07
2.17271e-06
2.59537e-05
2.12066e-05
0.0012804
0.00101776
1.22663e-05
4.63007e-09
0.00116517
0.00131432
0.00138823
0.0014005
9.24192e-06
0
7.93187e-06
0.00147178
3.19423e-09
2.1745e-05
2.64244e-05
1.9547e-05
1.54837e-08
1.74028e-05
2.23343e-05
0
1.76798e-05
7.11881e-06
0
0
0
1.62069e-06
1.70087e-09
4.27474e-05
5.76967e-05
0
0
0
3.14566e-05
0
0
1.57392e-05
0
5.66062e-05
0
9.3206e-06
0.000145983
0
0
0.00198761
0.000993436
0
0.00430382
3.21003e-05
1.90402e-09
2.38232e-09
0
7.57292e-07
1.94567e-05
0.00180434
5.18276e-09
7.51447e-05
0.00194104
0
0
2.35278e-05
0
0.000699616
1.74504e-06
0
2.94701e-09
2.99961e-09
0
3.75975e-09
0
9.15722e-06
2.18985e-10
7.71156e-09
0.00245378
2.0262e-05
0
0
0
2.79636e-10
2.79589e-05
7.61898e-10
5.14785e-10
2.60029e-05
0.000741594
0
9.12818e-05
2.49721e-07
2.79845e-10
7.83613e-05
2.10737e-10
1.27058e-07
1.40071e-10
0
5.41323e-07
6.3393e-06
1.55268e-05
2.51489e-09
4.65625e-10
7.17914e-06
1.06778e-05
1.08352e-09
1.25667e-05
0
6.74027e-05
3.11868e-07
0.00230087
2.80007e-07
0.00238025
0.00102665
0.000925892
1.22821e-10
2.99312e-06
0.00130741
0.00128778
0
0.00186603
1.2167e-07
1.81643e-07
0.00225159
0
0
0
0
0
3.95984e-05
0
2.85895e-05
0
0.00259891
0.00236663
0.0024698
3.22773e-09
2.44484e-09
2.4998e-09
1.70542e-08
1.1832e-05
6.87399e-05
1.70698e-05
0
0
0
9.73926e-06
1.28111e-08
0
7.80815e-06
0
1.47537e-05
0.000646343
0
1.02513e-06
0
2.11991e-09
3.927e-05
8.27004e-09
1.23024e-06
3.23626e-05
4.69014e-08
3.49731e-05
7.34749e-09
0
0.000341793
0.000349214
3.27753e-08
0.000455084
0.000494052
0.000310381
0
0
0.00117977
0.000117324
4.45615e-08
0
0.000260707
1.22141e-05
5.93136e-07
1.74095e-05
2.52665e-08
0
2.85117e-06
0.000440561
0
0.00140969
1.82202e-05
1.10857e-05
0.000551888
9.01832e-09
3.15303e-06
0
3.24994e-06
0
8.58167e-09
2.10758e-06
1.47288e-08
0.000923247
0
0
0
0.00299887
0
2.05269e-05
0
8.42136e-06
3.34802e-10
0
0
0
0
0
0
0.00068074
3.68782e-06
7.04232e-10
2.30868e-06
0
0
3.03466e-05
0
3.17481e-05
2.75294e-05
3.25806e-06
5.81066e-06
0.00111188
4.36131e-10
0
2.79725e-10
4.12326e-06
0
0
0
6.96791e-06
8.40295e-05
0.000510267
1.92482e-10
1.271e-06
1.51867e-06
0
0
0
0
0
0
1.84744e-05
0
2.55626e-09
0
0
2.51247e-09
0
6.4294e-07
0
3.96667e-06
0
1.291e-09
0
0
6.84896e-06
9.2825e-06
1.25179e-05
1.30198e-05
5.63978e-10
9.68505e-10
0
3.06643e-10
0
1.94249e-09
7.87389e-06
0
3.7691e-10
0.00208424
3.22205e-07
0
0
3.02275e-05
5.22253e-08
0
0
0.000119611
0
0
0
0
0.00151482
7.68697e-06
0
0
1.07853e-05
0
1.24193e-05
0
0
1.64634e-05
0
8.84564e-05
0
0
2.80443e-05
2.19123e-08
0.00362602
4.67906e-05
2.2187e-08
1.55404e-08
3.64781e-05
0
0.00194323
0
2.56284e-07
0.000618009
5.00632e-07
0.000469041
2.04805e-07
7.63987e-07
3.04811e-07
1.03516e-06
0
0
0.000565986
1.03086e-08
0.000384824
1.57548e-08
2.61483e-05
2.06744e-08
1.4667e-08
0.00260296
2.41961e-08
1.99779e-08
1.64131e-07
1.83006e-07
2.42058e-07
8.40444e-05
0
0
8.05339e-05
0
0
0
1.02385e-06
1.53817e-08
1.0368e-10
1.12569e-06
9.00253e-07
1.73017e-06
0
3.83954e-05
1.69422e-08
3.54289e-05
0
5.99744e-09
0.000232694
0
0.000281894
0
9.98742e-08
9.51021e-08
0
0
4.15314e-05
0
1.56374e-07
4.73343e-05
0
0.000106382
0.000137885
0
0
0
0.00154611
0
1.91726e-08
6.28137e-06
0
1.26663e-05
0
0
0
0
5.71054e-06
0.00117711
0
0.00247894
1.11374e-08
0.00322036
0.00336596
0.00363422
3.69895e-05
3.20427e-05
3.39726e-05
0
0.000278025
0
0
0
3.23267e-05
0
0
0
0.00191212
0
0
0
0
0
0
5.1506e-05
0
0
0.00192176
1.68256e-09
0.00236872
1.11714e-05
2.24523e-08
1.88483e-08
0.000834911
0.000576586
1.03064e-07
0.00074065
3.62485e-05
2.85218e-05
0.000609297
0
0
0
6.96083e-09
2.26081e-05
2.57352e-05
0
0
4.67988e-09
0
3.64311e-09
1.41836e-08
2.54069e-09
2.21044e-06
1.39721e-06
1.88778e-09
0
0
0.000407925
0
0
0
0
0
0
0.00194473
0
0.00189872
4.95765e-10
1.60934e-07
1.77386e-07
2.45742e-07
0.000159826
0.000163863
0.00018931
8.4113e-07
0
6.32717e-08
3.40277e-05
0.000109495
3.76986e-05
0
0.00100431
4.55891e-05
5.03806e-05
0
1.20766e-07
4.95019e-05
6.53596e-05
1.91195e-07
0
0.000284405
3.04199e-05
2.39056e-05
0.00011987
4.01688e-06
2.35502e-09
2.2094e-06
1.01191e-09
1.64729e-06
2.2589e-06
0.000394413
0.000446625
0.000831395
0.000946629
0.00100671
6.5948e-06
3.86957e-06
0.00069839
0.000770444
3.01221e-10
1.96295e-09
0.000722654
0.000890439
1.77538e-06
2.01982e-06
1.62722e-06
0.000437234
0.000488851
1.37796e-05
0.00057756
7.21624e-07
8.62372e-07
1.14695e-06
0.00026347
0.000296909
0.000354845
0
0
6.24524e-08
0.0001772
0.000163987
0.000212524
6.67786e-05
0.000182529
0.000237213
0.00023612
0
3.16478e-07
2.10662e-09
4.48036e-07
5.95714e-07
0
0.000132724
0.000155903
0.000190077
0
0
0
0
2.79696e-06
2.02017e-06
0
9.66427e-05
1.21469e-09
0
0
5.39475e-08
0
0.000983057
0.000223068
2.41771e-08
5.71993e-09
6.55882e-09
4.85337e-09
7.44994e-09
6.44254e-09
5.40316e-09
1.84146e-08
0
3.14644e-08
3.6839e-08
7.66057e-07
1.16427e-06
1.47279e-09
2.71724e-09
0
0.000260567
0
4.29089e-07
5.52742e-07
0.000192197
7.7322e-09
7.30527e-09
0
3.92368e-10
0
0.000125036
8.91216e-10
0
1.52828e-05
0
2.4215e-05
0
0
2.08045e-05
1.72732e-10
4.58233e-07
0
9.28868e-06
9.02648e-07
6.56812e-10
2.48835e-10
6.03932e-07
0
3.65459e-09
6.53157e-06
3.23958e-09
3.67137e-09
1.28681e-06
3.43088e-09
3.14605e-05
3.78951e-05
0
2.09401e-05
0.000113484
0
0
0.00316535
6.1145e-05
8.60541e-06
0
1.44173e-05
0
3.02704e-09
1.75504e-05
1.89415e-05
1.50858e-05
2.93908e-09
2.61711e-09
0.00125934
1.57024e-05
1.23483e-05
0
1.66873e-06
2.12528e-06
0
3.62788e-10
0.000923857
1.35521e-05
0
0
6.75519e-05
0.000881929
3.52685e-08
2.15961e-05
2.44349e-05
7.86642e-08
2.58221e-05
0
2.77946e-06
5.8209e-09
1.20284e-07
3.87687e-05
0
4.60331e-05
0.00134491
0
0
0.00031081
0
2.63649e-05
0
1.82928e-10
2.22008e-06
1.69792e-10
0
0
0
1.38898e-10
0
0
8.3355e-06
0
2.83333e-06
0
0
0
3.84182e-10
3.63646e-06
5.93084e-06
8.66761e-10
0
0
4.53032e-07
5.6299e-07
4.16479e-07
0.00053567
8.31215e-07
0
0
6.4848e-07
9.62941e-07
2.28133e-09
5.4803e-07
1.79389e-05
0
0
0
3.38593e-05
0
0
8.9198e-07
3.32144e-10
1.33061e-10
5.87016e-07
0.000230098
0.000303083
0
0
0.000130571
0
0
0
0.00234282
1.44544e-09
0
0
1.64135e-09
2.03041e-05
0
2.52416e-05
1.75869e-05
0.00105254
0
2.97893e-06
3.54778e-06
4.98403e-06
7.34182e-06
2.57728e-09
4.35573e-06
1.27489e-09
5.85721e-10
2.55466e-06
3.09907e-06
0
1.69088e-06
2.3278e-10
2.03689e-06
0.000641305
0
3.93193e-07
0
2.44985e-07
0
0
5.28365e-07
5.6631e-10
7.41516e-08
4.23454e-06
0
0
0
0.000692159
0.000854024
0
0.000135852
0
0
0
4.13511e-07
0
0.000770908
0
0.000280038
0
0
1.46365e-06
2.40796e-05
0.00276988
0.00275757
0.00256137
0.00344901
4.53317e-05
0.00239962
0.00116564
2.50773e-10
0.00025836
9.44344e-05
1.01698e-10
0.00020949
0.000210609
0
7.82047e-06
1.34057e-10
0
6.08715e-07
2.67948e-05
1.09978e-08
5.60699e-09
2.07794e-05
0.00174606
5.30678e-08
0
1.41182e-05
1.86581e-10
0.000177651
0.00169166
3.10852e-05
0.00204741
5.09646e-05
3.70588e-08
6.38284e-06
0.0020629
0.000813387
3.18024e-06
2.44949e-05
9.5493e-09
1.31451e-08
0.000659559
0
1.68092e-06
4.75778e-09
5.982e-07
1.8162e-10
0.000504236
3.5435e-06
1.12576e-09
4.48049e-10
6.02103e-07
0.000123179
0
0.00323872
0
0
0
4.8243e-06
0
8.12855e-07
2.1371e-09
6.92031e-07
0.00322424
1.69775e-09
2.59241e-05
1.30505e-06
4.14022e-10
0
0
0
2.68666e-07
0
0
0
0
0.0026448
3.59365e-09
0.00398259
0.000307013
0.000626818
6.80305e-10
0
8.27309e-05
0.000815938
0
0.00353481
0.00120919
1.22875e-09
0
0
0
3.96228e-10
5.19426e-07
4.89417e-05
0.00312411
8.17742e-05
0
0
0
0
4.65914e-05
0.00337105
6.03599e-05
0
4.67289e-05
0.00356387
0
3.11608e-08
0.000366088
0
0.00330277
0.000771961
0.000167029
0
0
8.93871e-09
4.38212e-05
0
3.01198e-05
0
0.00160466
3.34241e-09
1.30255e-06
3.08325e-05
0
0
0
3.41686e-08
3.00952e-05
7.81165e-09
0
2.90302e-05
3.51508e-05
0
1.35608e-09
1.83605e-05
2.5206e-05
3.29545e-09
0
5.11294e-08
2.23138e-05
0
2.70588e-08
0
0
0
0
0
0
1.28384e-07
1.02361e-05
1.91155e-05
0
1.29404e-06
0
3.18282e-08
1.98383e-05
6.77293e-10
0
0.00106462
1.88063e-08
0
1.60904e-06
0
0.000877017
1.34546e-08
1.17344e-07
3.9302e-05
0
2.50395e-05
0
0.000172461
8.41808e-08
0
0
0.00110246
0
0
0
0.000788429
0
0.000233162
0
4.85552e-07
9.27547e-07
1.57436e-10
0
0
0
2.89055e-05
3.38521e-10
0.000340556
0.000215124
1.45209e-09
4.38488e-07
0
5.53695e-07
5.80626e-07
0.000120482
1.81584e-07
4.07118e-07
0
0.000288484
7.38985e-07
1.33507e-07
0.000149472
2.04725e-07
0
1.14807e-06
0.000174172
0
3.06203e-07
0
0.000968402
0.000104814
0
0
0.000163639
0.000203626
0
0
5.99908e-08
3.39868e-07
0
0.000103585
8.21633e-08
3.4073e-07
0
1.82424e-10
0
1.65908e-09
0.000103955
0
1.22462e-07
0
0.000856043
4.5757e-06
0
2.53092e-07
0
4.6505e-06
0.000130169
0.00226189
3.17841e-06
0.00052086
0
0
2.72662e-08
4.80418e-09
0
0
0
0
0
0.000126378
0
0
6.46322e-05
4.65679e-05
0
0.000141083
2.79472e-07
8.20708e-05
9.72065e-05
4.01751e-05
0.000381498
1.20915e-05
0.00600913
1.25954e-07
4.87242e-05
0
0.0034219
3.14967e-10
0
1.56817e-05
1.18025e-09
1.90612e-09
5.45418e-05
0
3.53784e-05
5.99492e-10
1.0824e-09
0
0
3.38025e-05
0.00143522
4.91175e-10
1.83784e-05
0.00103417
4.86713e-07
0
0.00183008
1.49536e-07
0
4.32519e-05
0.000152859
2.60177e-05
1.19143e-06
5.2175e-05
8.45149e-06
0
2.73134e-05
0
0
8.62213e-08
7.44646e-06
0
0.00530735
9.89284e-09
5.88483e-07
3.17279e-08
0
0.000510068
1.2807e-06
0
0
1.10867e-08
0
0
0
0.000554628
1.62621e-08
7.15062e-07
0
0
3.89543e-07
0
0
0.000485222
0
3.40533e-05
0
0
0
3.99243e-07
7.15802e-07
1.26325e-10
0
0
4.00937e-06
4.51487e-06
5.55409e-09
1.41192e-05
2.29514e-05
9.18377e-09
0
0
4.39206e-06
2.73005e-06
0
0
0
5.83956e-06
3.39884e-09
2.28946e-10
1.4905e-09
0
0
0
0
0
4.86068e-07
8.38197e-09
0
4.20002e-09
3.15855e-05
9.96405e-09
7.1829e-09
0.00118283
0.000175471
9.62754e-09
0
3.01349e-07
0
0.00018881
0
2.21109e-09
2.9983e-05
5.45023e-09
0
0.000115022
0
0
6.02856e-06
4.30639e-09
0.00195378
1.53092e-07
0.00258254
0.000254291
8.13521e-09
0
0
0.000285765
0.000310095
1.93837e-07
0
1.4533e-06
2.61441e-10
0
0
0
1.24319e-08
1.12561e-05
1.2316e-05
2.56453e-08
7.00376e-06
0
0
0.00131215
0.000244854
1.41938e-05
0
0.000129923
1.90456e-08
0.00317042
0
1.00196e-05
4.72672e-06
0.000532758
7.4987e-05
0
5.8669e-06
0
0.000477428
3.70024e-06
0.00122412
3.13199e-05
0
0
0
7.87096e-10
6.93373e-06
1.75268e-07
1.84844e-09
0
0
0.000407631
0
0.000578638
0.00017274
0.00014232
0.000154584
0.000383916
1.31486e-09
0
0.0025326
0.000340366
0
2.5732e-10
1.40816e-05
2.13026e-05
6.37089e-10
0
0.00046247
2.13958e-08
6.99926e-06
0
0.00218522
0
0
1.59989e-09
0.0005954
0
0.000389377
5.15464e-06
6.13561e-09
0.00370767
1.38608e-06
4.76564e-06
0
0.000981389
8.18204e-05
6.56393e-05
0.000995182
0.000200889
1.03137e-05
2.28184e-06
0.000421948
0.00173354
0
0.00234322
0
9.44973e-09
0.000438908
0.000376161
0
0.000583151
0.00304384
5.0707e-09
1.12287e-05
1.10786e-05
7.07549e-09
0.000611787
0.000277209
5.67551e-08
4.46708e-07
0.000100168
0.00401679
0
0.000142677
0
1.2367e-09
0
9.53608e-05
1.15445e-09
0.000745856
0
2.29082e-05
0
5.18768e-06
6.95087e-05
3.04608e-07
1.83193e-07
5.86404e-05
1.44302e-07
0.00157691
5.50716e-05
0
0.000537338
8.22319e-06
0.000498968
8.51197e-09
1.68641e-05
2.97038e-05
0
0.00235557
1.38363e-05
4.01468e-10
1.15446e-08
0.000770568
0
0.000108933
1.1241e-10
0.000978529
0.000762963
1.23839e-08
1.85122e-06
0
3.36109e-10
3.74534e-05
5.38496e-05
0.00568068
0
2.01096e-05
8.99805e-05
0.000107631
0.00409121
1.33291e-07
0.0010003
1.44725e-10
0
7.7924e-06
1.83666e-09
2.32717e-05
9.22855e-10
0.000450357
0
1.18391e-08
0.000599254
2.11086e-05
0
7.53644e-05
1.7499e-06
0.000955269
0.00129019
0
3.31576e-06
1.6177e-09
2.40288e-05
0
2.78216e-05
1.14873e-08
0
9.33235e-08
2.2719e-07
0
0.00336351
0
1.2419e-08
1.98813e-05
0
0.00123165
0.0035883
2.28637e-05
0
1.68964e-08
0.00355443
0
0.000521081
0
0
0.000108963
0.00184704
1.83084e-08
2.64777e-05
0
0
5.22353e-10
7.18784e-08
3.79451e-05
0
2.15949e-05
3.17978e-05
4.20996e-09
0
0
9.45612e-10
1.08827e-10
0.00055531
0
0.00367503
0
0
0
0
0
0
7.61579e-07
0.000107996
2.52085e-10
0
0.00123032
2.29819e-09
0
1.51437e-09
0
0.000130842
0.000489317
4.02689e-09
7.55617e-06
0.00363
3.00808e-10
5.17383e-10
0
3.44448e-06
0
0
1.12881e-06
0.000796035
2.66618e-10
8.16856e-05
3.44932e-10
1.52693e-05
0.00022052
0.00115893
0
8.95001e-06
0.00309255
0.000141606
1.63812e-05
6.47404e-09
0.00419946
0.000531813
1.16196e-05
4.68585e-07
0.000788664
7.43068e-10
1.21165e-09
3.93975e-06
2.56226e-08
1.29246e-05
0
7.19897e-08
1.19993e-05
1.54775e-07
2.91295e-05
0
0
1.46488e-06
6.14597e-05
1.11159e-07
3.49981e-08
4.24398e-05
4.8067e-05
0.00494788
0.00013655
1.07607e-08
5.66163e-06
0.0013987
0.000873739
1.65052e-05
0
0.000227208
7.59447e-09
2.00583e-05
0
6.35251e-06
1.11489e-10
0.000811875
5.55803e-10
1.84072e-05
4.66184e-10
0
4.00456e-05
0
5.57569e-06
0.000746255
0
1.71614e-08
1.29672e-10
0.000123355
1.95451e-09
0
0
0.00101287
9.7926e-05
0.000119
0.00085473
0.000103082
3.16955e-10
0.000372218
0.000665064
0.00452846
0.000128694
6.79586e-05
0
2.08379e-08
6.73927e-06
0.00175985
2.15466e-07
5.64766e-05
0.000100115
0.00290496
0
0
3.35439e-05
1.48891e-08
8.46193e-09
2.17876e-05
0.000179901
0
3.18783e-07
0.00350455
0.0038122
8.37231e-05
9.83561e-05
0
0.00404496
1.05406e-10
0.000118621
0
0.00425871
0
0.00113402
0
0.00309723
4.75478e-05
1.21226e-08
4.94717e-10
1.83732e-06
1.25881e-06
4.36028e-09
1.81765e-06
0
0.000695913
2.95631e-09
0
0
0.00341649
9.69174e-07
0
6.31639e-05
0
0
0
8.46659e-06
0
0
4.12531e-06
8.14368e-06
1.13301e-10
1.07484e-06
2.14115e-10
0
1.46822e-09
0
0
2.98608e-05
0
0.000110395
0
0
0
4.3227e-06
1.76138e-08
0
0
5.25042e-05
0
0.000212656
0
1.74154e-05
0.000275118
0
1.48441e-05
1.92994e-07
0
0
6.2291e-06
0.00449746
0
3.81748e-05
5.85898e-09
0
6.06322e-07
0.000145062
6.26324e-07
0.000155949
6.73082e-07
0.000213347
2.14821e-07
0.000119537
5.14436e-07
0
0
1.66776e-10
0.000397256
1.66951e-09
1.32537e-10
0.000293496
0
0.00173557
3.54534e-05
0.000890389
1.39403e-06
0
0
2.7446e-05
0.000192372
0
3.85511e-09
4.89474e-09
0.000343585
0.00149305
5.58018e-06
8.32847e-06
5.98217e-06
4.04323e-09
4.2618e-08
0
0
0.000984386
0
1.33617e-05
0.000190229
0
0
2.81723e-05
0.00063824
0.000106846
0
0
0
0
1.36617e-07
0
1.4004e-07
1.52715e-08
0.00123191
0
0.000215207
0
1.99894e-07
0
0
0
0.00364017
0.000120796
0
8.4568e-08
0
5.91034e-08
0.000313281
0
0
1.20343e-06
1.003e-06
3.07361e-09
1.11156e-06
0
2.2685e-05
2.54296e-06
1.24792e-05
2.05094e-10
0
7.38945e-06
0.000125165
1.37447e-10
0
0
0
1.0415e-09
1.4451e-10
6.66143e-06
0.000306624
0.000276365
0
9.57636e-05
1.36548e-06
1.03931e-06
0.000446924
0
5.49169e-07
0
5.15784e-05
0.000161109
0
0
0
0
0.000364494
0.000324335
3.68998e-07
0
0
8.05499e-07
1.71847e-10
1.28287e-10
0.000326612
0.000142532
9.22821e-07
0
0
2.56566e-06
1.23638e-07
0.00251738
0.00222922
0.00286527
0
0
0
0
0
0
1.2528e-06
1.21801e-06
0.000118534
0.00342033
2.33827e-05
2.52233e-05
1.53787e-09
0
1.01692e-09
9.97415e-09
1.1749e-10
0
0.00143544
0
1.85391e-07
2.93479e-07
0.00167408
5.71314e-09
2.32819e-07
0.000367291
0
0
0
0.000234405
0.000227019
0
0
0.000195798
0
0.00016245
0.000791376
0.000282401
0.000268758
0
0
1.33104e-05
5.11458e-06
6.12685e-09
8.16302e-06
0
0
0.000109067
1.51973e-09
2.29496e-09
1.62828e-09
0.000618917
0
0.000643874
0.000732159
1.84726e-10
0
0
1.81024e-08
0
0
0.00136466
0.000148231
4.09768e-06
1.92295e-06
3.02902e-09
0
6.74947e-06
1.00888e-05
1.70543e-10
0.000993589
2.80761e-06
2.18158e-09
8.59159e-10
1.46387e-06
3.82992e-06
6.76075e-06
0
0
0
4.27321e-05
0
3.0507e-06
0
3.62127e-06
2.07181e-06
0
1.628e-10
9.86836e-06
0
1.4556e-06
6.98952e-05
5.32739e-06
2.18266e-08
0
0.00107003
0.00119984
5.04261e-06
0.00216099
0.00129991
0
7.18182e-06
4.98678e-06
0.00221261
0.000818116
5.80048e-10
0.000211481
4.4861e-10
1.59613e-10
2.71411e-10
0.00131866
2.21539e-10
0.00107327
1.01376e-08
0.000144953
0
2.49538e-08
0
0.000102986
1.45399e-08
2.03135e-10
8.18191e-05
1.1647e-08
0.000174289
6.99955e-08
0.000382377
1.22617e-07
5.56448e-08
0
0.00028357
4.76658e-08
1.62884e-08
0.00020435
1.96789e-08
0
8.43022e-05
1.13805e-08
7.02866e-05
1.66964e-09
9.69736e-05
8.85798e-09
2.3776e-07
0.00558218
5.11278e-09
0.000473089
0
0.00055259
0
3.89605e-09
0.0015544
5.31241e-09
0.000236258
5.37908e-09
0.00188228
0.000247337
3.33177e-07
1.75561e-07
2.81528e-07
0
5.64698e-08
1.42868e-05
0.00211302
1.79115e-08
3.68998e-05
0.00173498
0.000244067
1.03104e-05
0.00157868
1.36579e-07
0
0
0.00140207
0
0.000332627
0
0.00143451
1.58696e-05
2.47091e-05
0
0
0
0
5.68569e-06
1.26758e-07
1.73046e-05
1.21161e-05
0
0.00260429
5.44006e-05
4.62316e-05
5.74964e-07
0.000629674
2.3068e-07
4.58056e-05
0.00276012
5.50539e-05
4.13811e-05
3.52954e-10
1.65928e-05
1.99201e-10
6.14387e-05
0
0
0
0
0
0
0
4.28533e-05
0.000684542
0.00300936
3.46322e-05
0.000482187
4.50806e-07
0.00161317
0
2.55326e-10
5.96662e-05
0.00084461
2.2481e-07
0
0
7.09611e-07
3.909e-05
9.31477e-07
0
0
0
0.00079781
0
1.87207e-09
1.46023e-09
0.00268734
1.13039e-10
0
0
0
3.38256e-10
0
1.23252e-09
2.63247e-05
4.42406e-09
6.05822e-09
1.86199e-10
0.000874536
0
0
8.32938e-06
0
1.55531e-05
5.59995e-09
3.98645e-06
1.75713e-08
1.30474e-05
5.92552e-10
0
0
0.000449641
0.00158464
0
3.97598e-05
0
7.35666e-06
1.8943e-08
8.80337e-06
1.02583e-08
0
0.000883975
1.75465e-05
6.51173e-09
6.73942e-10
2.05618e-08
0.00115362
0.00104221
0.00109148
5.05864e-10
2.53579e-08
0.000893609
0
5.10192e-09
0.0017926
0
0.000939058
0.00156807
1.46929e-08
0
9.80631e-06
3.05796e-09
1.5164e-09
6.10582e-06
8.81286e-06
5.73476e-06
0
0.000110019
0
0
5.67028e-05
0
0.000178907
1.58972e-08
0
0
0
2.44884e-07
0
0
0
0.000791735
0
2.13676e-08
0
3.23296e-08
2.42485e-08
0
9.13489e-05
0.00619799
4.45809e-05
0.00573902
4.39742e-05
1.16428e-07
0.00347823
4.3075e-05
0
3.47596e-05
0
4.53119e-08
9.19877e-05
1.06852e-09
0
0
4.94042e-07
0.00016083
1.81095e-10
0.000167567
9.83221e-06
0
0.000940884
0.000218556
0.00209831
4.25144e-08
8.27434e-06
8.878e-08
1.70171e-05
1.97304e-08
0.00150856
9.54597e-08
0.000859513
0
1.64748e-07
0
0
0
5.1804e-08
0.000202443
0
0.000148286
0
0
3.00872e-06
0
0
0.0016935
0
0.000275025
2.79311e-10
0
0.00204205
0
0.000539781
3.60349e-06
6.17316e-10
0.00156344
0
0.00226656
0
0
0.000100016
8.4137e-10
6.16598e-05
0
0.000546411
7.43111e-05
0
0
0
0
1.8805e-07
6.32662e-05
2.8322e-07
7.6694e-05
0
0
0
0
9.0139e-05
0
0
4.27028e-05
7.53836e-05
0
0
0
0
0
1.4165e-10
1.14032e-06
2.11314e-06
3.16986e-10
0
0
9.45837e-10
0
0
1.92795e-10
1.13704e-05
0
0
0
0.0020871
0
0
7.28972e-09