# vtk DataFile Version 2.0
Unstructured Grid by M++
ASCII
DATASET UNSTRUCTURED_GRID
POINTS 4072 float
  0.609375   0.843750 0
  0.562500   0.843750 0
  0.531250   0.843750 0
  0.875000   0.828125 0
  0.984375   0.828125 0
  0.953125   0.828125 0
  0.937500   0.828125 0
  0.843750   0.828125 0
  0.812500   0.828125 0
  0.781250   0.828125 0
  0.765625   0.828125 0
  0.734375   0.828125 0
  0.703125   0.828125 0
  0.671875   0.828125 0
  0.640625   0.828125 0
  0.609375   0.828125 0
  0.593750   0.828125 0
  0.562500   0.828125 0
  0.546875   0.828125 0
  0.531250   0.828125 0
  0.515625   0.828125 0
  0.968750   0.812500 0
  0.937500   0.812500 0
  0.921875   0.812500 0
  0.890625   0.812500 0
  0.859375   0.812500 0
  0.828125   0.812500 0
  0.796875   0.812500 0
  0.765625   0.812500 0
  0.750000   0.812500 0
  0.718750   0.812500 0
  0.687500   0.812500 0
  0.656250   0.812500 0
  0.625000   0.812500 0
  0.593750   0.812500 0
  0.578125   0.812500 0
  0.546875   0.812500 0
  0.531250   0.812500 0
  0.515625   0.812500 0
  0.984375   0.796875 0
  0.562500   0.015625 0
  0.953125   0.796875 0
  0.921875   0.796875 0
  0.906250   0.796875 0
  0.875000   0.796875 0
  0.843750   0.796875 0
  0.812500   0.796875 0
  0.781250   0.796875 0
  0.750000   0.796875 0
  0.734375   0.796875 0
  0.703125   0.796875 0
  0.671875   0.796875 0
  0.640625   0.796875 0
  0.609375   0.796875 0
  0.578125   0.796875 0
  0.562500   0.796875 0
  0.531250   0.796875 0
  0.515625   0.796875 0
  0.968750   0.781250 0
  0.546875   0.000000 0
  0.937500   0.781250 0
  0.906250   0.781250 0
  0.890625   0.781250 0
  0.859375   0.781250 0
  0.828125   0.781250 0
  0.796875   0.781250 0
  0.765625   0.781250 0
  0.734375   0.781250 0
  0.718750   0.781250 0
  0.687500   0.781250 0
  0.656250   0.781250 0
  0.625000   0.781250 0
  0.593750   0.781250 0
  0.562500   0.781250 0
  0.546875   0.781250 0
  0.515625   0.781250 0
  0.984375   0.765625 0
  0.953125   0.765625 0
  0.921875   0.765625 0
  0.890625   0.765625 0
  0.875000   0.765625 0
  0.843750   0.765625 0
  0.812500   0.765625 0
  0.781250   0.765625 0
  0.750000   0.765625 0
  0.718750   0.765625 0
  0.703125   0.765625 0
  0.671875   0.765625 0
  0.640625   0.765625 0
  0.609375   0.765625 0
  0.578125   0.765625 0
  0.593750   0.750000 0
  0.562500   0.765625 0
  0.546875   0.765625 0
  0.531250   0.765625 0
  0.562500   0.750000 0
  0.968750   0.750000 0
  0.937500   0.750000 0
  0.906250   0.750000 0
  0.875000   0.750000 0
  0.859375   0.750000 0
  0.828125   0.750000 0
  0.796875   0.750000 0
  0.765625   0.750000 0
  0.734375   0.750000 0
  0.703125   0.750000 0
  0.687500   0.750000 0
  0.671875   0.750000 0
  0.656250   0.750000 0
  0.625000   0.750000 0
  0.546875   0.750000 0
  0.531250   0.750000 0
  0.515625   0.750000 0
  0.562500   0.734375 0
  0.984375   0.734375 0
  0.953125   0.734375 0
  0.921875   0.734375 0
  0.890625   0.734375 0
  0.859375   0.734375 0
  0.843750   0.734375 0
  0.812500   0.734375 0
  0.781250   0.734375 0
  0.750000   0.734375 0
  0.718750   0.734375 0
  0.687500   0.734375 0
  0.671875   0.734375 0
  0.656250   0.734375 0
  0.640625   0.734375 0
  0.546875   0.734375 0
  0.531250   0.734375 0
  0.515625   0.734375 0
  0.562500   0.718750 0
  0.968750   0.718750 0
  0.937500   0.718750 0
  0.906250   0.718750 0
  0.875000   0.718750 0
  0.843750   0.718750 0
  0.796875   0.718750 0
  0.765625   0.718750 0
  0.734375   0.718750 0
  0.703125   0.718750 0
  0.687500   0.718750 0
  0.671875   0.718750 0
  0.656250   0.718750 0
  0.625000   0.718750 0
  0.546875   0.718750 0
  0.531250   0.718750 0
  0.515625   0.718750 0
  0.562500   0.703125 0
  0.953125   0.703125 0
  0.921875   0.703125 0
  0.890625   0.703125 0
  0.859375   0.703125 0
  0.828125   0.703125 0
  0.781250   0.703125 0
  0.750000   0.703125 0
  0.718750   0.703125 0
  0.687500   0.703125 0
  0.656250   0.703125 0
  0.546875   0.703125 0
  0.531250   0.703125 0
  0.515625   0.703125 0
  0.984375   0.687500 0
  0.937500   0.687500 0
  0.921875   0.687500 0
  0.906250   0.687500 0
  0.875000   0.687500 0
  0.843750   0.687500 0
  0.812500   0.687500 0
  0.765625   0.687500 0
  0.734375   0.687500 0
  0.703125   0.687500 0
  0.671875   0.687500 0
  0.640625   0.687500 0
  0.593750   0.687500 0
  0.562500   0.687500 0
  0.546875   0.687500 0
  0.531250   0.687500 0
  0.515625   0.687500 0
  0.968750   0.671875 0
  0.937500   0.671875 0
  0.921875   0.671875 0
  0.906250   0.671875 0
  0.890625   0.671875 0
  0.859375   0.671875 0
  0.828125   0.671875 0
  0.796875   0.671875 0
  0.765625   0.671875 0
  0.750000   0.671875 0
  0.718750   0.671875 0
  0.687500   0.671875 0
  0.656250   0.671875 0
  0.625000   0.671875 0
  0.593750   0.671875 0
  0.578125   0.671875 0
  0.546875   0.671875 0
  0.531250   0.671875 0
  0.515625   0.671875 0
  0.984375   0.656250 0
  0.953125   0.656250 0
  0.937500   0.656250 0
  0.921875   0.656250 0
  0.906250   0.656250 0
  0.875000   0.656250 0
  0.843750   0.656250 0
  0.812500   0.656250 0
  0.781250   0.656250 0
  0.750000   0.656250 0
  0.734375   0.656250 0
  0.703125   0.656250 0
  0.671875   0.656250 0
  0.640625   0.656250 0
  0.609375   0.656250 0
  0.578125   0.656250 0
  0.562500   0.656250 0
  0.531250   0.656250 0
  0.515625   0.656250 0
  0.968750   0.640625 0
  0.937500   0.640625 0
  0.906250   0.640625 0
  0.890625   0.640625 0
  0.859375   0.640625 0
  0.828125   0.640625 0
  0.796875   0.640625 0
  0.765625   0.640625 0
  0.734375   0.640625 0
  0.718750   0.640625 0
  0.687500   0.640625 0
  0.656250   0.640625 0
  0.625000   0.640625 0
  0.593750   0.640625 0
  0.562500   0.640625 0
  0.546875   0.640625 0
  0.515625   0.640625 0
  0.984375   0.625000 0
  0.953125   0.625000 0
  0.921875   0.625000 0
  0.890625   0.625000 0
  0.875000   0.625000 0
  0.843750   0.625000 0
  0.812500   0.625000 0
  0.781250   0.625000 0
  0.750000   0.625000 0
  0.734375   0.625000 0
  0.718750   0.625000 0
  0.703125   0.625000 0
  0.671875   0.625000 0
  0.640625   0.625000 0
  0.609375   0.625000 0
  0.578125   0.625000 0
  0.562500   0.625000 0
  0.546875   0.625000 0
  0.531250   0.625000 0
  0.968750   0.609375 0
  0.937500   0.609375 0
  0.906250   0.609375 0
  0.875000   0.609375 0
  0.859375   0.609375 0
  0.828125   0.609375 0
  0.796875   0.609375 0
  0.765625   0.609375 0
  0.750000   0.609375 0
  0.734375   0.609375 0
  0.718750   0.609375 0
  0.703125   0.609375 0
  0.687500   0.609375 0
  0.656250   0.609375 0
  0.625000   0.609375 0
  0.593750   0.609375 0
  0.562500   0.609375 0
  0.546875   0.609375 0
  0.531250   0.609375 0
  0.515625   0.609375 0
  0.984375   0.593750 0
  0.953125   0.593750 0
  0.921875   0.593750 0
  0.890625   0.593750 0
  0.859375   0.593750 0
  0.843750   0.593750 0
  0.812500   0.593750 0
  0.781250   0.593750 0
  0.750000   0.593750 0
  0.734375   0.593750 0
  0.718750   0.593750 0
  0.687500   0.593750 0
  0.671875   0.593750 0
  0.640625   0.593750 0
  0.609375   0.593750 0
  0.578125   0.593750 0
  0.562500   0.593750 0
  0.546875   0.593750 0
  0.531250   0.593750 0
  0.515625   0.593750 0
  0.968750   0.578125 0
  0.937500   0.578125 0
  0.906250   0.578125 0
  0.875000   0.578125 0
  0.890625   0.562500 0
  0.843750   0.578125 0
  0.828125   0.578125 0
  0.796875   0.578125 0
  0.765625   0.578125 0
  0.734375   0.578125 0
  0.703125   0.578125 0
  0.671875   0.578125 0
  0.656250   0.578125 0
  0.656250   0.562500 0
  0.625000   0.578125 0
  0.640625   0.562500 0
  0.593750   0.578125 0
  0.562500   0.578125 0
  0.546875   0.578125 0
  0.531250   0.578125 0
  0.515625   0.578125 0
  0.859375   0.562500 0
  0.828125   0.562500 0
  0.781250   0.562500 0
  0.750000   0.562500 0
  0.718750   0.562500 0
  0.687500   0.562500 0
  0.609375   0.562500 0
  0.578125   0.562500 0
  0.562500   0.562500 0
  0.546875   0.562500 0
  0.531250   0.562500 0
  0.515625   0.562500 0
  1.000000   0.812500 0
  0.578125   0.031250 0
  0.875000   0.546875 0
  0.625000   0.546875 0
  0.218750   0.000000 0
  0.640625   0.781250 0
  0.828125   0.093750 0
  0.031250   0.531250 0
  0.296875   0.328125 0
  0.296875   0.312500 0
  0.281250   0.312500 0
  0.765625   0.312500 0
  0.031250   0.859375 0
  0.093750   0.265625 0
  0.109375   0.250000 0
  0.187500   0.671875 0
  0.421875   0.640625 0
  0.031250   0.062500 0
  0.140625   0.125000 0
  0.562500   0.906250 0
  0.125000   0.437500 0
  0.203125   0.937500 0
  0.125000   0.421875 0
  0.140625   0.406250 0
  0.093750   0.437500 0
  0.109375   0.421875 0
  0.093750   0.421875 0
  0.109375   0.406250 0
  0.328125   0.125000 0
  0.750000   0.906250 0
  0.328125   0.109375 0
  0.750000   0.890625 0
  0.312500   0.125000 0
  0.734375   0.906250 0
  0.281250   0.343750 0
  0.265625   0.359375 0
  0.500000   0.796875 0
  0.078125   0.015625 0
  0.062500   0.015625 0
  0.484375   0.796875 0
  0.484375   0.781250 0
  0.062500   0.000000 0
  0.015625   0.250000 0
  0.062500   0.046875 0
  0.484375   0.828125 0
  0.484375   0.812500 0
  0.062500   0.031250 0
  0.281250   0.671875 0
  0.062500   0.234375 0
  0.328125   0.765625 0
  0.312500   0.750000 0
  0.015625   0.671875 0
  0.781250   0.187500 0
  0.015625   0.265625 0
  0.453125   0.250000 0
  0.453125   0.234375 0
  0.031250   0.265625 0
  0.046875   0.250000 0
  0.093750   0.015625 0
  0.265625   0.656250 0
  0.734375   0.281250 0
  0.156250   0.015625 0
  0.062500   0.265625 0
  0.046875   0.281250 0
  0.031250   0.281250 0
  0.343750   0.781250 0
  0.328125   0.781250 0
  0.265625   0.687500 0
  0.265625   0.703125 0
  0.156250   0.109375 0
  0.578125   0.890625 0
  0.484375   0.984375 0
  0.062500   0.203125 0
  0.328125   0.718750 0
  0.343750   0.734375 0
  0.343750   0.750000 0
  0.453125   0.500000 0
  0.437500   0.500000 0
  0.234375   0.093750 0
  0.171875   0.375000 0
  0.437500   0.531250 0
  0.468750   0.546875 0
  0.453125   0.546875 0
  0.187500   0.015625 0
  0.187500   0.000000 0
  0.609375   0.781250 0
[...]
CELL_DATA 7648
SCALARS scalar_value float 1
LOOKUP_TABLE default
1.5288e-09
1.70599e-09
2.08429e-09
1.48784e-09
4.52707e-05
5.2329e-05
5.55634e-05
5.63788e-05
1.62212e-09
1.99276e-09
2.16053e-09
2.28662e-05
3.01009e-05
2.1822e-05
1.89599e-10
1.55462e-10
1.65371e-10
1.15831e-10
0
0
0
0
0
0
0
0
0
1.7672e-08
2.04961e-08
0
0
0
0
0
0
0
0
0
0
0
0
0
2.0055e-08
3.38909e-08
3.98322e-08
6.03674e-07
7.55617e-07
8.85014e-07
0
7.45295e-07
6.59854e-06
0
0
0
8.48436e-08
0
1.26605e-07
7.2765e-08
0
0
0
0
0
2.44847e-07
1.86246e-07
0
0
0
0
0
0
0
3.87885e-10
8.97404e-10
1.48707e-07
0
7.82319e-09
0
1.85357e-07
2.06098e-09
3.18307e-09
0
0
0
2.41465e-06
0
0
0
7.15548e-07
0
0
0
0
0
0
0
1.13785e-07
0
1.31408e-07
1.79691e-07
1.44982e-09
0
1.79273e-09
3.81466e-09
0
0
1.93512e-10
2.24784e-06
3.19518e-06
0
0
5.4794e-09
5.83995e-09
0
0
0
0
0
0
4.55864e-05
5.27721e-05
0
0
0
0
0
0
9.694e-08
1.34483e-07
8.38409e-08
0
1.7011e-07
0
7.19137e-06
0
8.79808e-06
6.16668e-09
0
0
6.22127e-07
2.12336e-07
7.53756e-07
8.16476e-07
0
8.68771e-07
6.39437e-07
6.44667e-05
0
8.54366e-06
3.45955e-07
3.61706e-07
0
0
0
7.30834e-05
5.82205e-05
1.37743e-05
0
8.30004e-07
0
0
0
0
2.16365e-10
4.99019e-07
6.90015e-07
0
4.61893e-07
0
7.05233e-05
0
2.20453e-07
1.41223e-06
2.48212e-05
4.55396e-09
0
3.40717e-05
2.03263e-07
0
2.36344e-07
3.32074e-07
0
3.04296e-06
1.33368e-08
0
0
5.26375e-06
0
0
3.02169e-08
0
4.44842e-08
5.52177e-07
0
0
6.91731e-07
7.94402e-07
7.64561e-07
0
0
0
5.2839e-06
0
7.02953e-06
6.89438e-06
0
0
1.10113e-05
1.55258e-05
1.12548e-05
0
0
0
0
1.23434e-07
0
0
0.000117394
0
2.55558e-08
5.51928e-08
1.77732e-07
2.38549e-07
0
1.88333e-07
0
8.42797e-09
2.48127e-08
1.7193e-07
1.41099e-07
1.72575e-05
1.34335e-05
8.28862e-08
0
1.43079e-05
1.65823e-05
1.75852e-05
1.80409e-05
6.93461e-08
0
6.09796e-08
6.6136e-05
0
4.20372e-07
5.22205e-07
1.12788e-07
0
1.00788e-07
1.3315e-07
0
1.05409e-07
1.10991e-07
0
0
0
8.15851e-09
0
8.05803e-07
1.14481e-06
0
0
0
3.3856e-07
0
0
8.74394e-08
0
4.24779e-07
0
4.84932e-08
1.15125e-06
0
0
4.20407e-05
4.02237e-05
0
8.54333e-05
5.12235e-07
0
0
0
2.9647e-09
3.00551e-07
7.18341e-05
0
1.14459e-06
7.80888e-05
0
0
2.60827e-07
0
1.71256e-05
2.36193e-08
0
0
0
0
0
0
1.39708e-07
0
0
7.45974e-05
3.58169e-07
0
0
0
0
4.05879e-07
0
0
2.79601e-07
1.60719e-05
0
1.94498e-06
1.41125e-09
0
1.64496e-06
0
6.51787e-10
0
0
2.06704e-09
5.46295e-08
1.45306e-07
0
0
6.65662e-08
9.9373e-08
0
1.36725e-07
0
5.81775e-07
1.16058e-09
6.26984e-05
1.03701e-09
6.68452e-05
1.7533e-05
1.61754e-05
0
2.63466e-08
2.1231e-05
2.19508e-05
0
4.13257e-05
4.38395e-10
6.66444e-10
7.90541e-05
0
0
0
0
0
4.93083e-07
0
3.35538e-07
0
5.66919e-05
5.26328e-05
5.64203e-05
0
0
0
0
1.16617e-07
1.36118e-06
1.90192e-07
0
0
0
8.44445e-08
0
0
3.9977e-08
0
8.24058e-08
2.55509e-05
0
1.51237e-08
0
0
4.75743e-07
0
1.69561e-08
2.17976e-07
1.89444e-10
2.39403e-07
0
0
5.76489e-06
6.33225e-06
1.04419e-10
7.0034e-06
8.26032e-06
4.37386e-06
0
0
2.05462e-05
2.77367e-06
1.45101e-10
0
3.22696e-06
1.28137e-07
8.47886e-09
1.88391e-07
0
0
1.2238e-08
5.98914e-06
0
5.12309e-05
2.64763e-07
1.62021e-07
1.87518e-05
0
4.88721e-08
0
5.1923e-08
0
0
8.76509e-09
0
2.65455e-05
0
0
0
6.83824e-05
0
2.80273e-07
0
8.30242e-08
0
0
0
0
0
0
0
9.54086e-06
2.51713e-08
0
1.45297e-08
0
0
3.71219e-07
0
3.95021e-07
3.48564e-07
2.66913e-08
5.17261e-08
1.45727e-05
0
0
0
3.55331e-08
0
0
0
9.24622e-08
1.71114e-06
7.03878e-06
0
7.694e-09
1.22442e-08
0
0
0
0
0
0
1.25254e-07
0
0
0
0
0
0
4.359e-09
0
2.58889e-08
0
0
0
0
4.08855e-08
5.57704e-08
7.66215e-08
1.34194e-07
0
0
0
0
0
0
1.11451e-07
0
0
4.53075e-05
1.9138e-09
0
0
4.11151e-07
2.133e-10
0
0
1.16967e-06
0
0
0
0
2.84369e-05
9.21076e-08
0
0
1.31831e-07
0
6.88978e-08
0
0
9.67005e-08
0
8.34258e-07
0
0
5.202e-07
0
6.69488e-05
4.37947e-07
0
0
3.52277e-07
0
5.53555e-05
0
3.1187e-09
6.75108e-06
6.30151e-09
4.964e-06
2.56779e-09
9.49584e-09
3.78102e-09
1.364e-08
0
0
8.53442e-06
0
1.39186e-05
0
5.02261e-07
0
0
4.19033e-05
0
0
6.9673e-10
8.03368e-10
1.04939e-09
6.24888e-07
0
0
6.12395e-07
0
0
0
7.54581e-09
0
0
7.88241e-09
5.91889e-09
1.27983e-08
0
7.47132e-07
0
3.26646e-07
0
0
1.99923e-06
0
9.31783e-06
0
4.14113e-10
3.91342e-10
0
0
8.2577e-07
0
5.64682e-10
3.57571e-07
0
7.9017e-07
1.07136e-06
0
0
0
2.00546e-05
0
0
3.11769e-08
0
6.92898e-08
0
0
0
0
2.68689e-08
5.00379e-05
0
7.7506e-05
0
6.07109e-05
6.48856e-05
7.11697e-05
4.40978e-07
3.80061e-07
3.98589e-07
0
4.86598e-06
0
0
0
3.74041e-07
0
0
0
7.8826e-05
0
0
0
0
0
0
9.64675e-07
0
0
2.73119e-05
0
3.63941e-05
7.40954e-08
0
0
1.73525e-05
1.19054e-05
4.13644e-10
8.18176e-06
4.57455e-07
1.84777e-07
1.28862e-05
0
0
0
0
1.62634e-07
1.80939e-07
0
0
0
0
0
0
0
1.84113e-08
5.64443e-09
0
0
0
4.67308e-06
0
0
0
0
0
0
3.5042e-05
0
3.58025e-05
0
5.78352e-10
6.42792e-10
9.07688e-10
1.78822e-06
1.76534e-06
2.21535e-06
3.68547e-09
0
2.38683e-10
2.10625e-07
8.294e-07
2.52172e-07
0
5.25632e-05
3.10094e-07
3.40231e-07
0
5.03034e-10
3.42399e-07
4.57581e-07
8.00514e-10
0
4.33005e-06
3.3105e-07
2.59234e-07
2.91529e-06
2.33189e-08
0
1.2066e-08
0
9.32719e-09
1.33376e-08
4.27106e-06
4.82142e-06
9.31852e-06
1.08629e-05
1.16575e-05
4.2406e-08
2.39108e-08
7.95899e-06
8.80267e-06
0
0
8.11375e-06
1.04416e-05
9.51414e-09
1.10976e-08
8.81268e-09
4.53845e-06
5.09538e-06
7.77411e-08
6.19788e-06
3.42137e-09
4.11788e-09
5.71999e-09
2.48463e-06
2.80611e-06
3.45524e-06
0
0
2.09488e-10
1.5238e-06
1.38332e-06
1.87671e-06
1.40794e-06
1.53995e-06
2.06701e-06
2.08997e-06
0
1.39449e-09
0
2.0549e-09
2.28665e-09
0
1.19797e-06
1.3995e-06
1.74763e-06
0
0
0
0
3.88889e-08
2.86474e-08
0
1.96848e-06
0
0
0
6.51102e-10
0
4.3492e-05
1.89264e-06
1.52827e-10
0
0
0
0
0
0
1.16267e-10
0
2.33077e-10
3.11693e-10
3.32586e-09
5.50581e-09
0
0
0
8.18968e-06
0
1.67386e-09
2.18411e-09
3.63455e-06
0
0
0
0
0
3.04534e-06
0
0
2.31836e-07
0
3.6714e-07
0
0
3.29694e-07
0
1.81115e-09
0
4.91166e-08
4.086e-09
0
0
2.57697e-09
0
0
8.52741e-08
0
0
7.25366e-09
0
2.20147e-07
2.81105e-07
0
3.93614e-07
2.81536e-06
0
0
6.19328e-05
8.45524e-07
5.09815e-08
0
1.3837e-07
0
0
1.10877e-07
1.21497e-07
9.69937e-08
0
0
3.41489e-05
2.08008e-07
1.62099e-07
0
6.86228e-09
8.92057e-09
0
0
1.12423e-05
1.90121e-07
0
0
4.80078e-07
4.26926e-05
1.22672e-10
1.24807e-07
1.4295e-07
2.83007e-10
1.54175e-07
0
1.59335e-08
0
4.91079e-10
2.53044e-07
0
3.0558e-07
5.96901e-05
0
0
6.44653e-06
0
1.68125e-07
0
0
1.74718e-08
0
0
0
0
0
0
0
5.3871e-08
0
1.68468e-08
0
0
0
0
2.86683e-08
4.72318e-08
0
0
0
1.72789e-09
2.15976e-09
1.5752e-09
7.15501e-06
4.36653e-09
0
0
3.13366e-09
4.95197e-09
0
2.70286e-09
2.97226e-07
0
0
0
6.20747e-07
0
0
4.18849e-09
0
0
2.63643e-09
2.62964e-06
3.44652e-06
0
0
9.98489e-07
0
0
0
4.44796e-05
0
0
0
0
2.37533e-07
0
3.01223e-07
2.12312e-07
1.70999e-05
0
2.22881e-08
2.58033e-08
3.78585e-08
4.82388e-08
0
2.76099e-08
0
0
1.55319e-08
2.86999e-08
0
1.14314e-08
0
1.45211e-08
9.25183e-06
0
5.10632e-09
0
3.13361e-09
0
0
6.20388e-09
0
3.03606e-10
2.41423e-08
0
0
0
1.0269e-05
1.25597e-05
0
3.56422e-06
0
0
0
1.72369e-09
0
3.72458e-05
0
3.27024e-06
0
0
8.05775e-09
3.16326e-07
4.67488e-05
7.58003e-05
4.23525e-05
6.31293e-05
3.58787e-07
3.76223e-05
4.82602e-05
0
2.28138e-06
1.37902e-06
0
1.75851e-06
1.81115e-06
0
1.2469e-07
0
0
2.52305e-09
2.40764e-07
0
0
1.92968e-07
2.3932e-05
2.30179e-10
0
1.22423e-07
0
1.47416e-06
2.30738e-05
2.32375e-07
2.96788e-05
3.91973e-07
1.53772e-10
1.07441e-07
3.00926e-05
3.04809e-05
4.64414e-08
1.79667e-07
0
0
2.40673e-05
0
6.86044e-09
0
2.62237e-09
0
5.19793e-06
3.86844e-08
0
0
2.42728e-09
2.1311e-06
0
7.48704e-05
0
0
0
7.73305e-08
0
3.1886e-09
0
3.73546e-09
6.72818e-05
0
2.84858e-07
6.68296e-09
0
0
0
0
1.22418e-09
0
0
0
0
5.14307e-05
0
7.25655e-05
4.13379e-06
8.53419e-06
0
0
5.88616e-07
3.63397e-05
0
7.62585e-05
2.00544e-05
0
0
0
0
0
1.98679e-09
3.27699e-07
6.80934e-05
5.77048e-07
0
0
0
0
6.27774e-07
7.45027e-05
1.32968e-06
0
5.90459e-07
7.24298e-05
0
1.23036e-10
3.69359e-06
0
6.61319e-05
3.62962e-05
4.73132e-06
0
0
0
5.75988e-07
0
3.3384e-07
0
4.31069e-05
0
1.50646e-08
3.44636e-07
0
0
0
1.10832e-10
3.13562e-07
0
0
3.2744e-07
2.5617e-07
0
0
1.90209e-07
2.63001e-07
0
0
1.68724e-10
2.53606e-07
0
1.08806e-10
0
0
0
0
0
0
4.54227e-10
5.25643e-08
2.04378e-07
0
5.18299e-09
0
1.01492e-10
2.57762e-07
0
0
1.33044e-05
0
0
6.54504e-09
0
1.8703e-05
0
4.43973e-10
2.4664e-07
0
2.80798e-07
0
2.79231e-06
3.54925e-10
0
0
2.47929e-05
0
0
0
1.75829e-05
0
2.41468e-06
0
2.51892e-09
5.01378e-09
0
0
0
0
5.67216e-07
0
3.36902e-06
2.1772e-06
0
2.21301e-09
0
2.54098e-09
2.22175e-09
1.11836e-06
8.24996e-10
1.74514e-09
0
5.42975e-06
2.8769e-09
6.26861e-10
1.49293e-06
9.95489e-10
0
4.57774e-09
1.72088e-06
0
1.49341e-09
0
1.61113e-05
2.36843e-06
0
0
1.6745e-06
2.13497e-06
0
0
2.78791e-10
1.76327e-09
0
1.02834e-06
3.80194e-10
1.52602e-09
0
0
0
0
2.40486e-06
0
5.6283e-10
0
1.32802e-05
2.10507e-08
0
1.13372e-09
0
2.17197e-08
3.3383e-06
8.1686e-05
1.45173e-08
1.80185e-05
0
0
2.03225e-10
0
0
0
0
0
0
1.0212e-06
0
0
4.63053e-07
3.29699e-07
0
1.13793e-06
1.16082e-09
5.8438e-07
7.54439e-07
5.86731e-07
5.68357e-06
9.34172e-08
0.000130182
5.06336e-10
3.21097e-07
0
5.94766e-05
0
0
8.92973e-08
0
0
7.56121e-07
0
4.73019e-07
0
0
0
0
2.11241e-07
2.82046e-05
0
2.0759e-07
3.80789e-05
2.86925e-09
0
3.61245e-05
7.43631e-10
0
5.34863e-07
4.18422e-06
1.57281e-07
4.74747e-09
1.12993e-06
1.06707e-07
0
1.69837e-07
0
0
8.41488e-10
1.27643e-07
0
0.000111269
0
3.65042e-09
1.07263e-10
0
1.99454e-05
6.22187e-09
0
0
0
0
0
0
1.22375e-05
0
2.99762e-09
0
0
1.55052e-09
0
0
1.75368e-05
0
5.05328e-07
0
0
0
1.90676e-09
3.54364e-09
0
0
0
1.87878e-08
2.19332e-08
0
9.37546e-08
1.55178e-07
0
0
0
5.60421e-08
4.28995e-08
0
0
0
7.21823e-08
0
0
0
0
0
0
0
0
3.08393e-09
0
0
0
3.47338e-07
0
0
2.216e-05
1.652e-06
0
0
3.32921e-09
0
1.81382e-06
0
0
3.42267e-07
0
0
1.1701e-06
0
0
3.49149e-08
0
4.44963e-05
5.56069e-10
7.35213e-05
3.47957e-06
0
0
0
3.03561e-06
3.37569e-06
8.97336e-10
0
8.45598e-09
0
0
0
0
0
6.01048e-08
6.56441e-08
0
7.97228e-08
0
0
1.686e-05
3.63177e-06
1.00528e-07
0
1.23011e-06
0
5.397e-05
0
5.42808e-08
6.12531e-08
5.52824e-06
1.66552e-06
0
4.34618e-08
0
4.80959e-06
1.68298e-08
4.23864e-05
5.59187e-07
0
0
0
0
6.62533e-08
2.33705e-09
0
0
0
1.51652e-05
0
1.37186e-05
1.41066e-06
1.1092e-06
1.30526e-06
3.72418e-06
0
0
3.97093e-05
3.25161e-06
0
0
1.69042e-07
2.52612e-07
0
0
4.69412e-06
0
3.45405e-08
0
6.34911e-05
0
0
0
6.33046e-06
0
3.81092e-06
2.51248e-08
0
7.38638e-05
7.03189e-09
2.76339e-08
0
1.14385e-05
6.06048e-07
4.56855e-07
4.77682e-05
1.7698e-06
5.71461e-08
2.98489e-08
4.14601e-06
4.02551e-05
0
3.66142e-05
0
0
4.37027e-06
4.20124e-06
0
6.13061e-06
5.10772e-05
0
6.1926e-08
5.99654e-08
0
6.51503e-06
5.11019e-06
1.92635e-10
1.69137e-09
8.68989e-07
7.31233e-05
0
1.31317e-06
0
0
0
2.16495e-06
0
1.76075e-05
0
1.40477e-07
0
4.26407e-08
4.76788e-07
1.19755e-09
7.28521e-10
3.92447e-07
5.16686e-10
6.48299e-05
8.16767e-07
0
5.60778e-06
4.31205e-08
1.84854e-05
0
1.76939e-07
3.14649e-07
0
3.62616e-05
1.47963e-07
0
0
2.6041e-05
0
2.57198e-06
0
5.06204e-05
1.45647e-05
0
2.29166e-08
0
0
4.57795e-07
7.02946e-07
0.000121244
0
1.17848e-07
1.5303e-06
9.51793e-07
7.47952e-05
5.49504e-10
1.15823e-05
0
0
4.38373e-08
0
2.91668e-07
0
4.46458e-06
0
0
6.42652e-06
1.27419e-07
0
1.56011e-06
7.19668e-09
3.02512e-05
3.25638e-05
0
4.37303e-08
0
1.56696e-07
0
1.99036e-07
0
0
4.43603e-10
1.13422e-09
0
5.88515e-05
0
0
1.23025e-07
0
5.89476e-05
6.3369e-05
3.87348e-07
0
0
6.67476e-05
0
9.41526e-06
0
0
1.71751e-06
5.08231e-05
0
3.75196e-07
0
0
0
2.97713e-10
5.39313e-07
0
3.01058e-07
4.42566e-07
0
0
0
0
0
7.8863e-06
0
6.51384e-05
0
0
0
0
0
0
3.54335e-09
8.00123e-07
0
0
1.85366e-05
0
0
0
0
2.02206e-06
5.74906e-06
0
4.58131e-08
7.51323e-05
0
0
0
3.82008e-08
0
0
1.25897e-08
1.55558e-05
0
1.52503e-06
0
1.93484e-07
3.71901e-06
1.38762e-05
0
1.14736e-07
5.19062e-05
2.35785e-06
1.06985e-07
0
7.81435e-05
5.89841e-06
6.88982e-08
1.7834e-09
1.07171e-05
0
0
5.52942e-08
0
8.44014e-08
0
2.48381e-10
6.31379e-08
5.58965e-10
2.00507e-07
0
0
1.72069e-08
4.50592e-07
4.73737e-10
1.40897e-10
3.07435e-07
7.21643e-07
9.92659e-05
1.12418e-06
0
2.72883e-08
1.83683e-05
9.87397e-06
2.22667e-07
0
4.12622e-06
0
1.38323e-07
0
3.87958e-08
0
9.11061e-06
0
2.25443e-07
0
0
8.37645e-07
0
5.42397e-08
8.27807e-06
0
0
0
9.77765e-07
0
0
0
5.18752e-05
7.20111e-07
9.21857e-07
1.56329e-05
2.44837e-06
0
3.53482e-06
1.32162e-05
8.70297e-05
1.08276e-06
5.42124e-07
0
0
3.27274e-08
6.26686e-05
7.8759e-10
4.54759e-07
7.30524e-07
4.77817e-05
0
0
2.55746e-07
0
0
1.65185e-07
3.13993e-06
0
1.18837e-09
6.12849e-05
6.88098e-05
6.80745e-07
7.95045e-07
0
7.55108e-05
0
1.02173e-06
0
7.92485e-05
0
5.13018e-05
0
6.3121e-05
9.91019e-07
0
0
1.02131e-08
5.04105e-09
0
1.15366e-08
0
1.41545e-05
0
0
0
7.69992e-05
5.92929e-09
0
4.94797e-07
0
0
0
4.29992e-08
0
0
5.06632e-08
9.89675e-08
0
5.67659e-09
0
0
0
0
0
6.01182e-07
0
9.33147e-07
0
0
0
2.6326e-08
1.30314e-10
0
0
3.87264e-07
0
6.62648e-06
0
9.69743e-08
9.3415e-06
0
8.09493e-08
7.00896e-10
0
0
7.81359e-08
8.67861e-05
0
4.91648e-07
0
0
2.34525e-09
1.27734e-06
2.41775e-09
1.34292e-06
2.62236e-09
4.22118e-06
2.8375e-09
9.8715e-07
1.97613e-09
0
0
0
3.82484e-06
0
0
2.63943e-06
0
3.58557e-05
2.27555e-07
1.03401e-05
1.95689e-08
0
0
3.17714e-07
5.75862e-06
0
0
0
4.46498e-06
3.38144e-05
6.64716e-08
8.428e-08
3.02799e-08
0
1.39329e-10
0
0
2.01253e-05
0
1.58216e-07
5.62543e-06
0
0
4.69703e-07
6.8945e-06
1.11223e-06
0
0
0
0
5.77031e-10
0
6.10193e-10
0
1.48768e-05
0
2.67452e-06
0
8.6348e-10
0
0
0
6.50177e-05
9.11906e-07
0
2.9121e-10
0
1.97053e-10
3.78371e-06
0
0
6.24455e-09
3.97267e-09
0
6.47947e-09
0
1.32879e-07
3.47342e-08
1.4241e-07
0
0
8.53431e-08
9.54053e-07
0
0
0
0
0
0
6.6622e-08
3.85121e-06
3.59962e-06
0
2.28045e-06
1.74247e-08
1.2554e-08
4.53095e-06
0
2.21825e-09
0
1.04865e-06
1.55837e-06
0
0
0
0
5.29997e-06
4.68693e-06
1.72524e-09
0
0
3.91347e-09
0
0
3.4446e-06
3.67029e-06
3.64637e-09
0
0
3.08369e-08
1.51857e-09
3.97105e-05
5.19616e-05
4.7071e-05
0
0
0
0
0
0
1.87778e-08
1.77366e-08
2.45321e-06
6.37784e-05
2.33357e-07
3.37899e-07
0
0
0
0
0
0
6.58205e-05
0
7.03167e-10
1.13258e-09
7.30451e-05
0
8.7595e-10
4.27762e-06
0
0
0
3.09241e-06
2.70316e-06
0
0
2.42015e-06
0
1.90481e-06
1.13136e-05
3.96821e-06
3.67255e-06
0
0
7.2256e-08
5.78884e-08
0
5.90991e-08
0
0
2.50984e-06
0
0
0
1.13554e-05
0
1.20779e-05
1.31657e-05
0
0
0
0
0
0
2.61161e-05
3.92832e-06
3.68675e-08
8.06497e-09
0
0
7.38473e-08
1.08819e-07
0
1.15192e-05
1.53711e-08
0
0
7.38539e-09
4.63537e-08
6.96595e-08
0
0
0
7.23929e-07
0
3.86437e-08
0
4.22591e-08
2.66707e-08
0
0
1.34391e-07
0
5.8836e-09
1.49559e-06
8.19768e-08
0
0
3.53619e-05
4.02156e-05
6.81841e-08
4.17376e-05
4.17287e-05
0
1.19345e-07
8.24357e-08
4.0877e-05
3.14654e-05
0
1.7797e-06
0
0
0
2.04292e-05
0
1.50953e-05
0
1.51088e-06
0
2.45132e-10
0
1.58109e-06
1.32652e-10
0
1.21119e-06
0
2.96858e-06
7.87957e-10
3.79617e-06
1.42714e-09
6.06097e-10
0
2.72756e-06
5.38612e-10
1.35865e-10
1.91629e-06
2.14822e-10
0
1.38354e-06
1.18459e-10
1.11406e-06
0
1.57789e-06
0
2.68725e-09
0.000118756
0
9.57791e-06
0
1.07809e-05
0
0
4.86415e-05
0
4.74143e-06
0
5.76613e-05
4.82694e-06
4.47204e-09
2.27254e-09
1.34187e-09
0
1.93982e-10
7.72197e-08
8.1758e-05
0
3.19273e-07
3.33249e-05
7.45472e-06
5.35498e-08
6.66304e-05
5.00825e-10
0
0
5.67173e-05
0
5.10627e-06
0
1.80917e-05
2.74674e-07
4.29928e-07
0
0
0
0
2.68884e-08
4.55565e-10
9.65631e-08
6.38853e-08
0
7.61036e-05
3.61129e-07
2.97285e-07
2.19681e-09
2.42588e-05
8.77736e-10
2.94938e-07
6.43227e-05
1.13966e-06
5.64651e-07
0
1.93067e-07
0
1.24341e-06
0
0
0
0
0
0
0
2.81366e-07
2.94715e-05
6.40351e-05
2.15472e-07
1.96867e-05
1.70599e-09
6.14818e-05
0
0
4.16707e-07
3.85974e-05
3.0527e-09
0
0
2.74877e-09
7.98995e-07
3.66606e-09
0
0
0
1.20416e-05
0
0
0
6.74491e-05
0
0
0
0
0
0
0
3.18872e-07
0
0
0
1.12431e-05
0
0
4.15908e-08
0
1.12703e-07
0
1.7843e-08
0
1.17019e-07
0
0
0
8.91183e-06
5.8568e-05
0
2.50912e-07
0
1.02183e-07
0
6.11375e-08
0
0
2.69406e-05
1.23639e-07
0
0
0
1.44149e-05
1.99074e-05
2.13793e-05
0
0
1.67411e-05
0
0
3.28815e-05
0
2.86946e-05
2.80942e-05
0
0
7.00154e-08
0
0
4.27472e-08
7.87247e-08
5.88136e-08
0
1.0541e-06
0
0
5.50162e-07
0
1.45901e-06
0
0
0
0
1.01941e-09
0
0
0
2.03805e-05
0
0
0
1.02436e-10
0
0
7.2514e-07
0.000135266
5.66699e-07
0.000122976
2.84681e-07
4.77448e-10
7.36249e-05
2.99942e-07
0
2.28751e-07
0
1.87851e-10
2.05487e-06
0
0
0
1.9215e-09
4.46648e-06
0
1.36177e-06
9.37928e-08
0
1.87607e-05
2.00628e-06
7.28656e-05
1.40199e-10
4.11194e-08
3.08385e-10
9.62781e-08
0
1.94268e-05
3.71842e-10
9.77682e-06
0
8.81169e-10
0
0
0
1.8794e-10
6.02028e-06
0
3.98477e-06
0
0
2.089e-08
0
0
4.27384e-05
0
2.54848e-06
0
0
5.4516e-05
0
1.78761e-05
4.83168e-08
0
4.51776e-05
0
6.80176e-05
0
0
7.47375e-07
0
4.15048e-07
0
6.35751e-06
5.19553e-07
0
0
0
0
7.69594e-10
4.32904e-07
1.14331e-09
5.35355e-07
0
0
0
0
8.0593e-07
0
0
3.9333e-07
6.29752e-07
0
0
0
0
0
0
7.31517e-09
1.40011e-08
0
0
0
0
0
0
0
1.40995e-07
0
0
0
4.21782e-05
0
0
0
8.11143e-09
0
0
4.76699e-09
2.52655e-07
0
0
0
5.56871e-07
4.09774e-07
0
0
0
0
2.47997e-05
3.3422e-05
2.73267e-05
0
0
3.1566e-07
0
4.39429e-07
3.96412e-07
2.45653e-06
7.82564e-05
4.00208e-05
5.09917e-05
4.70201e-05
0
0
5.77721e-06
0
0
0
2.61058e-05
3.32064e-05
0
2.61924e-05
0
0
0
0
2.86188e-07
3.00667e-07
0
0
2.80834e-05
0
0
1.00851e-09
0
0
0
3.36377e-05
3.81116e-05
2.99857e-05
1.51795e-06
0
0
1.13116e-05
0
1.03372e-05
8.66166e-06
0
0
0
0
0
1.08062e-08
5.09135e-09
3.92654e-09
6.88001e-08
1.03586e-07
6.67792e-08
0
0
0
0
0
0
0
0
3.39309e-06
3.14057e-06
4.4596e-06
3.08239e-05
2.37294e-05
3.10728e-05
0
3.69738e-05
0
0
0
3.38404e-08
0
2.01389e-08
0
1.12358e-08
1.02536e-08
0
0
5.48474e-05
4.82783e-06
6.62946e-06
5.90687e-06
6.38472e-06
2.80236e-07
0
1.17546e-08
2.17243e-06
9.42968e-09
3.34448e-05
9.37809e-08
5.25893e-08
5.31426e-06
3.2697e-08
6.1406e-08
2.82683e-06
0
3.04846e-09
0
1.4486e-05
1.86257e-05
0
0
0
2.31105e-06
1.66798e-06
1.89669e-06
3.49447e-06
4.50738e-06
4.35164e-06
2.93117e-05
2.873e-05
0
2.59651e-05
2.15288e-05
0
1.6126e-06
0
1.54349e-06
1.2626e-06
0
7.30802e-07
0
0
0
0
3.32739e-06
5.28492e-06
0
7.27146e-06
3.5048e-10
6.43234e-10
4.37573e-10
2.27688e-06
3.25239e-06
2.61986e-06
2.38817e-06
2.05586e-06
0
2.66875e-06
0
2.74324e-06
2.41192e-10
0
1.00242e-10
0
0
5.56825e-05
5.10474e-05
4.34534e-05
0
0
0
0
0
0
4.40489e-07
0
0
1.88697e-06
0
2.25942e-09
0
0
0
1.11319e-07
4.9518e-09
0
6.37343e-09
1.46964e-06
1.06537e-08
0
0
0
2.73593e-05
0
0
1.92304e-05
0
2.99684e-08
3.85821e-06
7.16143e-06
0
3.87004e-06
0
3.4969e-06
6.54305e-06
0
2.84177e-06
0
0
2.15533e-05
0
6.33963e-08
1.1879e-05
1.0893e-05
0
1.10578e-05
9.40893e-06
0
0
0
1.75942e-05
1.75087e-07
0
0
1.22134e-07
0
0
6.161e-08
3.90309e-08
2.77877e-08
1.65973e-07
2.68477e-07
2.04707e-07
0
0
0
0
0
0
0
0
0
7.7768e-06
6.71932e-06
8.25263e-06
1.01177e-05
1.27481e-05
0
6.77186e-06
1.02845e-05
5.13755e-08
0
3.16879e-08
0
1.6916e-08
1.95458e-08
4.18344e-09
0
1.40632e-05
1.28939e-08
0
2.10739e-07
1.71169e-09
0
0
0
0
0
8.63054e-07
5.39749e-05
4.68954e-08
0
0
1.16577e-09
6.15677e-07
5.65248e-07
3.5936e-09
0
4.46339e-06
0
4.55148e-06
3.21426e-06
0
2.25635e-08
1.84889e-06
1.04879e-07
1.425e-06
1.74408e-05
2.05326e-05
2.23311e-05
0
7.48145e-08
0
0
0
0
0
0
4.63624e-05
0
1.49142e-08
1.00815e-08
8.36273e-09
0
1.74843e-10
2.42001e-10
4.85942e-05
5.86422e-05
5.15532e-05
4.76779e-05
3.71544e-06
0
3.41538e-06
2.75871e-06
0
0
6.09248e-09
0
3.10811e-09
0
0
3.99297e-09
0
3.98224e-05
4.91437e-05
4.23339e-05
3.8778e-05
0
0
9.61917e-06
1.87323e-07
0
8.28715e-06
7.36436e-07
0
0
0
3.16516e-07
2.90346e-07
4.24621e-06
3.42808e-06
0
0
0
0
2.09106e-06
3.51126e-06
0
2.34897e-07
3.78713e-05
4.74089e-05
4.05739e-05
3.71493e-05
1.52334e-09
0
0
6.49338e-08
8.02362e-08
3.24929e-06
7.532e-08
0
0
2.40677e-05
0
0
0
1.24478e-07
1.76215e-07
0
0
0
0
0
0
1.25093e-10
1.19323e-10
2.46241e-05
3.03857e-05
2.49326e-05
2.19733e-05
7.55244e-10
3.43604e-07
1.67857e-09
1.38834e-09
5.14625e-10
2.06353e-07
1.00721e-06
1.43963e-06
1.03579e-06
4.98717e-05
2.87843e-07
2.68565e-07
2.45782e-07
1.93487e-07
1.40387e-07
2.13133e-07
1.48201e-07
0
0
2.19273e-05
2.78183e-05
2.3569e-05
2.15335e-05
0
0
0
2.06785e-06
1.82715e-06
1.47392e-06
0
1.21333e-05
2.24642e-09
6.24433e-08
2.38496e-06
4.28346e-08
0
1.7337e-09
0
0
0
0