# vtk DataFile Version 2.0
Unstructured Grid by M++
ASCII
DATASET UNSTRUCTURED_GRID
POINTS 4072 float
  0.609375   0.843750 0
  0.562500   0.843750 0
  0.531250   0.843750 0
  0.875000   0.828125 0
  0.984375   0.828125 0
  0.953125   0.828125 0
  0.937500   0.828125 0
  0.843750   0.828125 0
  0.812500   0.828125 0
  0.781250   0.828125 0
  0.765625   0.828125 0
  0.734375   0.828125 0
  0.703125   0.828125 0
  0.671875   0.828125 0
  0.640625   0.828125 0
  0.609375   0.828125 0
  0.593750   0.828125 0
  0.562500   0.828125 0
  0.546875   0.828125 0
  0.531250   0.828125 0
  0.515625   0.828125 0
  0.968750   0.812500 0
  0.937500   0.812500 0
  0.921875   0.812500 0
  0.890625   0.812500 0
  0.859375   0.812500 0
  0.828125   0.812500 0
  0.796875   0.812500 0
  0.765625   0.812500 0
  0.750000   0.812500 0
  0.718750   0.812500 0
  0.687500   0.812500 0
  0.656250   0.812500 0
  0.625000   0.812500 0
  0.593750   0.812500 0
  0.578125   0.812500 0
  0.546875   0.812500 0
  0.531250   0.812500 0
  0.515625   0.812500 0
  0.984375   0.796875 0
  0.562500   0.015625 0
  0.953125   0.796875 0
  0.921875   0.796875 0
  0.906250   0.796875 0
  0.875000   0.796875 0
  0.843750   0.796875 0
  0.812500   0.796875 0
  0.781250   0.796875 0
  0.750000   0.796875 0
  0.734375   0.796875 0
  0.703125   0.796875 0
  0.671875   0.796875 0
  0.640625   0.796875 0
  0.609375   0.796875 0
  0.578125   0.796875 0
  0.562500   0.796875 0
  0.531250   0.796875 0
  0.515625   0.796875 0
  0.968750   0.781250 0
  0.546875   0.000000 0
  0.937500   0.781250 0
  0.906250   0.781250 0
  0.890625   0.781250 0
  0.859375   0.781250 0
  0.828125   0.781250 0
  0.796875   0.781250 0
  0.765625   0.781250 0
  0.734375   0.781250 0
  0.718750   0.781250 0
  0.687500   0.781250 0
  0.656250   0.781250 0
  0.625000   0.781250 0
  0.593750   0.781250 0
  0.562500   0.781250 0
  0.546875   0.781250 0
  0.515625   0.781250 0
  0.984375   0.765625 0
  0.953125   0.765625 0
  0.921875   0.765625 0
  0.890625   0.765625 0
  0.875000   0.765625 0
  0.843750   0.765625 0
  0.812500   0.765625 0
  0.781250   0.765625 0
  0.750000   0.765625 0
  0.718750   0.765625 0
  0.703125   0.765625 0
  0.671875   0.765625 0
  0.640625   0.765625 0
  0.609375   0.765625 0
  0.578125   0.765625 0
  0.593750   0.750000 0
  0.562500   0.765625 0
  0.546875   0.765625 0
  0.531250   0.765625 0
  0.562500   0.750000 0
  0.968750   0.750000 0
  0.937500   0.750000 0
  0.906250   0.750000 0
  0.875000   0.750000 0
  0.859375   0.750000 0
  0.828125   0.750000 0
  0.796875   0.750000 0
  0.765625   0.750000 0
  0.734375   0.750000 0
  0.703125   0.750000 0
  0.687500   0.750000 0
  0.671875   0.750000 0
  0.656250   0.750000 0
  0.625000   0.750000 0
  0.546875   0.750000 0
  0.531250   0.750000 0
  0.515625   0.750000 0
  0.562500   0.734375 0
  0.984375   0.734375 0
  0.953125   0.734375 0
  0.921875   0.734375 0
  0.890625   0.734375 0
  0.859375   0.734375 0
  0.843750   0.734375 0
  0.812500   0.734375 0
  0.781250   0.734375 0
  0.750000   0.734375 0
  0.718750   0.734375 0
  0.687500   0.734375 0
  0.671875   0.734375 0
  0.656250   0.734375 0
  0.640625   0.734375 0
  0.546875   0.734375 0
  0.531250   0.734375 0
  0.515625   0.734375 0
  0.562500   0.718750 0
  0.968750   0.718750 0
  0.937500   0.718750 0
  0.906250   0.718750 0
  0.875000   0.718750 0
  0.843750   0.718750 0
  0.796875   0.718750 0
  0.765625   0.718750 0
  0.734375   0.718750 0
  0.703125   0.718750 0
  0.687500   0.718750 0
  0.671875   0.718750 0
  0.656250   0.718750 0
  0.625000   0.718750 0
  0.546875   0.718750 0
  0.531250   0.718750 0
  0.515625   0.718750 0
  0.562500   0.703125 0
  0.953125   0.703125 0
  0.921875   0.703125 0
  0.890625   0.703125 0
  0.859375   0.703125 0
  0.828125   0.703125 0
  0.781250   0.703125 0
  0.750000   0.703125 0
  0.718750   0.703125 0
  0.687500   0.703125 0
  0.656250   0.703125 0
  0.546875   0.703125 0
  0.531250   0.703125 0
  0.515625   0.703125 0
  0.984375   0.687500 0
  0.937500   0.687500 0
  0.921875   0.687500 0
  0.906250   0.687500 0
  0.875000   0.687500 0
  0.843750   0.687500 0
  0.812500   0.687500 0
  0.765625   0.687500 0
  0.734375   0.687500 0
  0.703125   0.687500 0
  0.671875   0.687500 0
  0.640625   0.687500 0
  0.593750   0.687500 0
  0.562500   0.687500 0
  0.546875   0.687500 0
  0.531250   0.687500 0
  0.515625   0.687500 0
  0.968750   0.671875 0
  0.937500   0.671875 0
  0.921875   0.671875 0
  0.906250   0.671875 0
  0.890625   0.671875 0
  0.859375   0.671875 0
  0.828125   0.671875 0
  0.796875   0.671875 0
  0.765625   0.671875 0
  0.750000   0.671875 0
  0.718750   0.671875 0
  0.687500   0.671875 0
  0.656250   0.671875 0
  0.625000   0.671875 0
  0.593750   0.671875 0
  0.578125   0.671875 0
  0.546875   0.671875 0
  0.531250   0.671875 0
  0.515625   0.671875 0
  0.984375   0.656250 0
  0.953125   0.656250 0
  0.937500   0.656250 0
  0.921875   0.656250 0
  0.906250   0.656250 0
  0.875000   0.656250 0
  0.843750   0.656250 0
  0.812500   0.656250 0
  0.781250   0.656250 0
  0.750000   0.656250 0
  0.734375   0.656250 0
  0.703125   0.656250 0
  0.671875   0.656250 0
  0.640625   0.656250 0
  0.609375   0.656250 0
  0.578125   0.656250 0
  0.562500   0.656250 0
  0.531250   0.656250 0
  0.515625   0.656250 0
  0.968750   0.640625 0
  0.937500   0.640625 0
  0.906250   0.640625 0
  0.890625   0.640625 0
  0.859375   0.640625 0
  0.828125   0.640625 0
  0.796875   0.640625 0
  0.765625   0.640625 0
  0.734375   0.640625 0
  0.718750   0.640625 0
  0.687500   0.640625 0
  0.656250   0.640625 0
  0.625000   0.640625 0
  0.593750   0.640625 0
  0.562500   0.640625 0
  0.546875   0.640625 0
  0.515625   0.640625 0
  0.984375   0.625000 0
  0.953125   0.625000 0
  0.921875   0.625000 0
  0.890625   0.625000 0
  0.875000   0.625000 0
  0.843750   0.625000 0
  0.812500   0.625000 0
  0.781250   0.625000 0
  0.750000   0.625000 0
  0.734375   0.625000 0
  0.718750   0.625000 0
  0.703125   0.625000 0
  0.671875   0.625000 0
  0.640625   0.625000 0
  0.609375   0.625000 0
  0.578125   0.625000 0
  0.562500   0.625000 0
  0.546875   0.625000 0
  0.531250   0.625000 0
  0.968750   0.609375 0
  0.937500   0.609375 0
  0.906250   0.609375 0
  0.875000   0.609375 0
  0.859375   0.609375 0
  0.828125   0.609375 0
  0.796875   0.609375 0
  0.765625   0.609375 0
  0.750000   0.609375 0
  0.734375   0.609375 0
  0.718750   0.609375 0
  0.703125   0.609375 0
  0.687500   0.609375 0
  0.656250   0.609375 0
  0.625000   0.609375 0
  0.593750   0.609375 0
  0.562500   0.609375 0
  0.546875   0.609375 0
  0.531250   0.609375 0
  0.515625   0.609375 0
  0.984375   0.593750 0
  0.953125   0.593750 0
  0.921875   0.593750 0
  0.890625   0.593750 0
  0.859375   0.593750 0
  0.843750   0.593750 0
  0.812500   0.593750 0
  0.781250   0.593750 0
  0.750000   0.593750 0
  0.734375   0.593750 0
  0.718750   0.593750 0
  0.687500   0.593750 0
  0.671875   0.593750 0
  0.640625   0.593750 0
  0.609375   0.593750 0
  0.578125   0.593750 0
  0.562500   0.593750 0
  0.546875   0.593750 0
  0.531250   0.593750 0
  0.515625   0.593750 0
  0.968750   0.578125 0
  0.937500   0.578125 0
  0.906250   0.578125 0
  0.875000   0.578125 0
  0.890625   0.562500 0
  0.843750   0.578125 0
  0.828125   0.578125 0
  0.796875   0.578125 0
  0.765625   0.578125 0
  0.734375   0.578125 0
  0.703125   0.578125 0
  0.671875   0.578125 0
  0.656250   0.578125 0
  0.656250   0.562500 0
  0.625000   0.578125 0
  0.640625   0.562500 0
  0.593750   0.578125 0
  0.562500   0.578125 0
  0.546875   0.578125 0
  0.531250   0.578125 0
  0.515625   0.578125 0
  0.859375   0.562500 0
  0.828125   0.562500 0
  0.781250   0.562500 0
  0.750000   0.562500 0
  0.718750   0.562500 0
  0.687500   0.562500 0
  0.609375   0.562500 0
  0.578125   0.562500 0
  0.562500   0.562500 0
  0.546875   0.562500 0
  0.531250   0.562500 0
  0.515625   0.562500 0
  1.000000   0.812500 0
  0.578125   0.031250 0
  0.875000   0.546875 0
  0.625000   0.546875 0
  0.218750   0.000000 0
  0.640625   0.781250 0
  0.828125   0.093750 0
  0.031250   0.531250 0
  0.296875   0.328125 0
  0.296875   0.312500 0
  0.281250   0.312500 0
  0.765625   0.312500 0
  0.031250   0.859375 0
  0.093750   0.265625 0
  0.109375   0.250000 0
  0.187500   0.671875 0
  0.421875   0.640625 0
  0.031250   0.062500 0
  0.140625   0.125000 0
  0.562500   0.906250 0
  0.125000   0.437500 0
  0.203125   0.937500 0
  0.125000   0.421875 0
  0.140625   0.406250 0
  0.093750   0.437500 0
  0.109375   0.421875 0
  0.093750   0.421875 0
  0.109375   0.406250 0
  0.328125   0.125000 0
  0.750000   0.906250 0
  0.328125   0.109375 0
  0.750000   0.890625 0
  0.312500   0.125000 0
  0.734375   0.906250 0
  0.281250   0.343750 0
  0.265625   0.359375 0
  0.500000   0.796875 0
  0.078125   0.015625 0
  0.062500   0.015625 0
  0.484375   0.796875 0
  0.484375   0.781250 0
  0.062500   0.000000 0
  0.015625   0.250000 0
  0.062500   0.046875 0
  0.484375   0.828125 0
  0.484375   0.812500 0
  0.062500   0.031250 0
  0.281250   0.671875 0
  0.062500   0.234375 0
  0.328125   0.765625 0
  0.312500   0.750000 0
  0.015625   0.671875 0
  0.781250   0.187500 0
  0.015625   0.265625 0
  0.453125   0.250000 0
  0.453125   0.234375 0
  0.031250   0.265625 0
  0.046875   0.250000 0
  0.093750   0.015625 0
  0.265625   0.656250 0
  0.734375   0.281250 0
  0.156250   0.015625 0
  0.062500   0.265625 0
  0.046875   0.281250 0
  0.031250   0.281250 0
  0.343750   0.781250 0
  0.328125   0.781250 0
  0.265625   0.687500 0
  0.265625   0.703125 0
  0.156250   0.109375 0
  0.578125   0.890625 0
  0.484375   0.984375 0
  0.062500   0.203125 0
  0.328125   0.718750 0
  0.343750   0.734375 0
  0.343750   0.750000 0
  0.453125   0.500000 0
  0.437500   0.500000 0
  0.234375   0.093750 0
  0.171875   0.375000 0
  0.437500   0.531250 0
  0.468750   0.546875 0
  0.453125   0.546875 0
  0.187500   0.015625 0
  0.187500   0.000000 0
  0.609375   0.781250 0
[...]
CELL_DATA 7648
SCALARS scalar_value float 1
LOOKUP_TABLE default
3.56305e-09
3.97366e-09
4.85093e-09
3.46726e-09
8.56671e-05
9.87732e-05
0.000105157
0.000106071
3.7779e-09
4.63739e-09
5.02704e-09
4.25854e-05
5.56981e-05
4.03608e-05
4.478e-10
3.6792e-10
3.91588e-10
2.7468e-10
0
0
0
0
0
0
0
0
0
3.89834e-08
4.5093e-08
0
0
0
0
0
0
0
0
0
0
0
0
0
4.13683e-08
6.94448e-08
8.11127e-08
1.25387e-06
1.56846e-06
1.84257e-06
0
1.57235e-06
1.3434e-05
0
0
0
1.64706e-07
0
2.44809e-07
1.40484e-07
0
0
0
0
0
4.66139e-07
3.55363e-07
0
0
0
1.73308e-10
0
0
0
8.6875e-10
1.99682e-09
2.89122e-07
0
1.7529e-08
0
3.56785e-07
4.56489e-09
7.00902e-09
0
0
0
4.92357e-06
0
0
0
1.33378e-06
0
0
0
0
0
0
0
2.2708e-07
0
2.63323e-07
3.59302e-07
3.20649e-09
0
3.94118e-09
8.35131e-09
0
0
4.49984e-10
4.56539e-06
6.34343e-06
0
0
1.0683e-08
1.13452e-08
0
0
0
0
0
0
8.57343e-05
9.90041e-05
0
0
0
0
0
0
2.12452e-07
2.93685e-07
1.83304e-07
0
3.46971e-07
0
1.35394e-05
0
1.64127e-05
1.42307e-08
0
0
1.27876e-06
4.11048e-07
1.54813e-06
1.68148e-06
0
1.78047e-06
1.33652e-06
0.000120286
0
1.72492e-05
6.5169e-07
6.7873e-07
0
0
0
0.000124627
9.90213e-05
2.645e-05
0
1.76207e-06
0
0
0
0
4.91495e-10
1.05305e-06
1.44976e-06
0
9.69132e-07
0
0.000135089
0
4.79929e-07
2.86594e-06
4.21295e-05
8.86282e-09
0
6.56542e-05
4.28344e-07
1.11371e-10
5.00268e-07
6.99615e-07
1.7744e-10
6.1879e-06
2.95861e-08
0
0
1.08135e-05
0
0
6.59048e-08
0
9.59744e-08
1.06532e-06
0
0
1.32982e-06
1.53008e-06
1.46382e-06
0
0
0
1.03972e-05
0
1.43553e-05
1.40747e-05
0
0
2.04962e-05
2.87015e-05
2.08027e-05
0
0
0
0
2.71707e-07
0
0
0.000219638
0
5.13586e-08
1.11139e-07
3.89144e-07
5.20139e-07
0
4.11007e-07
0
1.68203e-08
4.95715e-08
3.72999e-07
3.05885e-07
3.43083e-05
2.677e-05
1.79129e-07
0
2.87644e-05
3.32225e-05
3.5205e-05
3.60519e-05
1.47285e-07
0
1.28936e-07
0.000111982
0
7.86959e-07
9.75003e-07
2.48881e-07
1.19102e-10
2.22317e-07
2.9266e-07
0
2.31683e-07
2.13398e-07
0
0
0
1.8285e-08
0
1.51354e-06
2.13702e-06
0
0
0
6.83662e-07
0
0
1.93829e-07
0
9.07433e-07
0
1.08379e-07
2.43864e-06
0
0
7.88409e-05
6.89445e-05
0
0.000160902
9.82546e-07
0
0
0
6.87073e-09
5.78816e-07
0.000123613
0
2.21171e-06
0.000134229
0
0
5.24245e-07
0
3.13255e-05
4.61959e-08
0
0
0
0
0
0
2.69398e-07
0
0
0.0001333
6.78022e-07
0
0
0
0
7.88053e-07
0
0
5.64453e-07
2.99232e-05
0
3.60022e-06
3.0957e-09
0
3.0501e-06
0
1.4493e-09
0
0
4.80862e-09
1.13417e-07
2.98848e-07
0
0
1.36774e-07
2.04318e-07
0
2.75157e-07
0
1.21917e-06
2.70867e-09
0.000113716
2.4213e-09
0.000120752
3.37304e-05
3.10102e-05
0
5.43948e-08
4.11725e-05
4.2285e-05
0
7.70103e-05
1.02574e-09
1.55616e-09
0.000138428
0
0
0
0
0
9.76718e-07
0
6.6954e-07
0
0.000106008
9.81265e-05
0.000104834
0
0
0
1.23033e-10
2.37866e-07
2.54174e-06
3.81795e-07
0
0
0
1.75401e-07
0
0
8.95233e-08
0
1.8257e-07
4.38656e-05
0
2.92363e-08
0
0
9.45727e-07
1.2089e-10
3.30757e-08
4.71965e-07
4.36127e-10
5.17321e-07
0
0
1.10606e-05
1.20343e-05
2.48482e-10
1.36135e-05
1.58877e-05
8.58927e-06
0
0
3.94486e-05
5.06743e-06
3.44278e-10
0
6.45037e-06
2.59103e-07
1.6446e-08
3.79656e-07
1.87113e-10
0
2.80348e-08
1.1842e-05
0
8.91202e-05
5.13905e-07
3.14181e-07
3.28218e-05
0
9.39833e-08
0
9.94665e-08
0
0
2.01579e-08
1.05651e-10
4.75255e-05
0
0
0
0.0001272
0
5.48404e-07
0
1.69172e-07
0
0
0
0
0
0
0
1.88258e-05
5.40624e-08
0
3.15484e-08
0
0
7.36819e-07
0
7.8238e-07
6.88747e-07
5.57113e-08
1.06846e-07
2.90705e-05
0
0
0
7.36662e-08
0
0
0
1.81472e-07
3.18472e-06
1.38992e-05
0
1.67739e-08
2.55532e-08
0
0
0
0
0
0
2.70805e-07
0
0
0
0
0
0
9.31479e-09
0
5.60125e-08
0
0
0
0
8.97841e-08
1.22414e-07
1.67824e-07
2.72062e-07
0
0
0
0
0
0
2.16969e-07
0
0
8.46775e-05
4.16758e-09
0
0
8.05045e-07
4.90294e-10
0
0
2.41266e-06
0
0
0
0
5.41142e-05
1.83091e-07
0
0
2.61476e-07
0
1.52771e-07
0
0
2.12932e-07
0
1.7276e-06
0
0
9.7892e-07
1.97271e-10
0.000127317
9.04945e-07
1.9984e-10
1.40692e-10
7.23472e-07
0
9.96857e-05
0
6.16806e-09
1.37683e-05
1.24227e-08
1.01641e-05
5.05719e-09
1.87591e-08
7.46208e-09
2.67562e-08
0
0
1.66515e-05
0
2.41224e-05
1.39036e-10
9.41056e-07
1.86133e-10
1.30717e-10
8.11574e-05
2.18213e-10
1.78031e-10
1.59465e-09
1.83032e-09
2.39561e-09
1.33667e-06
0
0
1.30633e-06
0
0
0
1.59419e-08
1.5285e-10
0
1.67906e-08
1.27241e-08
2.70721e-08
0
1.39779e-06
1.51159e-10
6.75525e-07
0
0
4.19622e-06
0
1.63219e-05
0
9.50536e-10
8.99199e-10
0
0
1.54086e-06
0
1.32175e-09
7.62987e-07
0
1.68953e-06
2.27768e-06
0
0
0
3.9993e-05
0
1.49354e-10
7.00895e-08
0
1.53902e-07
0
0
0
0
6.08197e-08
8.52736e-05
0
0.000137965
0
0.000115817
0.000123445
0.000135158
8.78397e-07
7.57435e-07
7.95551e-07
0
9.28259e-06
0
0
0
7.47886e-07
0
0
0
0.000135064
0
0
0
0
0
0
1.81352e-06
0
0
5.38736e-05
0
7.09819e-05
1.60522e-07
1.68673e-10
1.3961e-10
3.25047e-05
2.22874e-05
9.5374e-10
1.66283e-05
9.04494e-07
4.02019e-07
2.40511e-05
0
0
0
1.13302e-10
3.48866e-07
3.89484e-07
0
0
0
0
0
1.03712e-10
0
3.82848e-08
1.30353e-08
0
0
0
9.46779e-06
0
0
0
0
0
0
6.71244e-05
0
6.81586e-05
0
1.3555e-09
1.50504e-09
2.12047e-09
3.61984e-06
3.59454e-06
4.45804e-06
8.40952e-09
0
5.5488e-10
4.60708e-07
1.76963e-06
5.46509e-07
0
8.70969e-05
6.7066e-07
7.36452e-07
0
1.15407e-09
7.39004e-07
9.86022e-07
1.83595e-09
0
8.41497e-06
6.67417e-07
5.2263e-07
5.30685e-06
5.13478e-08
0
2.67533e-08
0
2.05557e-08
2.92408e-08
8.71881e-06
9.84795e-06
1.89289e-05
2.2004e-05
2.35843e-05
9.21427e-08
5.21652e-08
1.61507e-05
1.78555e-05
0
0
1.64919e-05
2.11129e-05
2.11386e-08
2.4578e-08
1.95462e-08
9.31461e-06
1.04511e-05
1.72027e-07
1.26667e-05
7.72042e-09
9.28468e-09
1.28249e-08
5.15998e-06
5.82552e-06
7.14619e-06
0
0
4.95187e-10
3.201e-06
2.91284e-06
3.92913e-06
2.60901e-06
3.24213e-06
4.3326e-06
4.37354e-06
0
3.17694e-09
0
4.65656e-09
5.31543e-09
0
2.50003e-06
2.92367e-06
3.64048e-06
0
0
0
0
7.58296e-08
5.57035e-08
0
3.66395e-06
0
0
0
1.28422e-09
0
7.36865e-05
3.97685e-06
3.24429e-10
0
0
0
0
0
0
2.46709e-10
0
4.8512e-10
6.39119e-10
7.59812e-09
1.24367e-08
0
0
0
1.44412e-05
0
3.8821e-09
5.0571e-09
6.84901e-06
0
0
0
0
0
5.54204e-06
0
0
4.47481e-07
0
7.08812e-07
0
0
6.32871e-07
0
4.19258e-09
0
1.09549e-07
9.28186e-09
0
0
5.90057e-09
0
0
1.67701e-07
0
0
1.59864e-08
0
4.74315e-07
6.01076e-07
0
7.39421e-07
5.11304e-06
0
0
0.000117578
1.65395e-06
1.12098e-07
0
2.83476e-07
0
0
2.41937e-07
2.64613e-07
2.11135e-07
0
0
6.1767e-05
4.0852e-07
3.1868e-07
0
1.58103e-08
2.04964e-08
0
0
2.26329e-05
3.70646e-07
0
0
1.02867e-06
7.14312e-05
2.8831e-10
2.7529e-07
3.14689e-07
6.62605e-10
3.38763e-07
0
3.51082e-08
0
1.12975e-09
5.50047e-07
0
6.62838e-07
0.0001012
0
0
1.20265e-05
0
3.665e-07
0
0
3.66407e-08
0
0
0
0
0
0
0
1.17052e-07
0
3.6924e-08
0
0
0
0
6.02077e-08
9.92113e-08
0
0
0
4.01743e-09
5.0198e-09
3.66769e-09
1.41982e-05
9.71398e-09
0
0
7.05176e-09
1.10524e-08
0
6.06383e-09
5.67272e-07
0
0
0
1.1699e-06
0
0
9.46622e-09
0
0
5.99309e-09
5.31611e-06
6.98191e-06
0
0
2.12602e-06
0
0
0
8.4678e-05
0
0
0
0
4.73981e-07
0
5.99689e-07
4.21916e-07
3.31248e-05
0
4.71524e-08
5.48627e-08
8.00553e-08
1.04516e-07
0
6.00293e-08
0
0
3.3916e-08
5.88265e-08
0
2.45193e-08
0
3.09089e-08
1.8175e-05
0
1.00229e-08
0
6.15779e-09
0
0
1.23378e-08
0
6.9796e-10
5.33027e-08
0
0
0
2.01017e-05
2.46427e-05
0
6.42548e-06
0
0
0
3.95877e-09
0
6.22825e-05
0
6.59648e-06
0
0
1.78254e-08
6.2206e-07
8.98859e-05
0.00013744
8.16174e-05
0.000120139
7.60472e-07
7.30961e-05
8.25223e-05
0
4.7646e-06
2.6839e-06
0
3.69803e-06
3.79216e-06
0
2.39062e-07
0
0
5.80134e-09
4.99242e-07
0
0
3.97703e-07
4.73456e-05
5.24183e-10
0
2.54608e-07
0
3.10063e-06
4.57684e-05
4.96115e-07
5.83506e-05
8.34449e-07
3.52208e-10
2.04551e-07
5.91657e-05
5.27385e-05
8.99967e-08
3.84394e-07
0
0
4.17598e-05
0
1.58175e-08
0
5.98151e-09
0
1.06729e-05
7.77167e-08
0
0
5.60386e-09
4.05575e-06
0
0.000139064
0
0
0
1.48118e-07
0
7.38794e-09
0
8.27442e-09
0.000126668
0
5.73343e-07
1.49324e-08
0
0
0
0
2.77547e-09
0
0
0
0
9.76505e-05
0
0.000138904
8.16904e-06
1.69022e-05
0
0
1.26328e-06
6.14635e-05
0
0.000142996
3.87646e-05
0
0
0
0
0
4.62244e-09
7.0765e-07
0.000127444
1.24044e-06
0
0
0
0
1.2312e-06
0.000139231
2.45067e-06
0
1.16772e-06
0.000136887
0
2.84003e-10
7.6072e-06
0
0.000125191
6.09212e-05
8.44328e-06
0
0
0
1.13316e-06
0
6.71326e-07
0
7.81846e-05
0
3.00408e-08
6.92265e-07
0
0
0
2.63093e-10
6.36049e-07
0
0
6.56848e-07
5.4902e-07
0
0
3.85689e-07
5.33154e-07
0
0
3.99667e-10
5.08007e-07
0
2.50149e-10
0
0
0
0
0
0
1.06646e-09
1.17594e-07
4.12638e-07
0
1.19779e-08
0
2.41421e-10
5.07544e-07
0
0
2.66971e-05
2.17361e-10
0
1.50924e-08
0
3.49212e-05
0
1.03251e-09
5.38332e-07
0
5.63579e-07
0
5.37254e-06
8.12569e-10
0
0
4.60058e-05
0
0
0
3.26163e-05
0
4.95251e-06
0
5.60899e-09
1.11099e-08
0
0
0
0
1.05999e-06
0
6.95539e-06
4.47864e-06
0
4.94705e-09
0
5.75851e-09
5.168e-09
2.32419e-06
1.87046e-09
3.99199e-09
0
1.02592e-05
6.67302e-09
1.4137e-09
3.07288e-06
2.23503e-09
0
1.05818e-08
3.54947e-06
0
3.35346e-09
0
3.10965e-05
4.35235e-06
0
0
3.43576e-06
4.36904e-06
0
0
6.28119e-10
3.92387e-09
0
2.11504e-06
8.58297e-10
3.46886e-09
0
0
0
0
4.40622e-06
0
1.27318e-09
0
2.58631e-05
4.77952e-08
0
2.57642e-09
0
4.92153e-08
6.03571e-06
0.0001425
3.29811e-08
3.14598e-05
0
0
4.22517e-10
0
0
0
0
0
0
2.16195e-06
0
0
9.95075e-07
7.09512e-07
0
2.40938e-06
2.66636e-09
1.25623e-06
1.60525e-06
1.13855e-06
1.10878e-05
1.97716e-07
0.000242639
1.16744e-09
6.97026e-07
0
0.000114453
0
0
1.97377e-07
0
0
1.47796e-06
0
9.28328e-07
0
0
0
0
4.61588e-07
5.33357e-05
0
4.16035e-07
6.60733e-05
6.26404e-09
0
6.8343e-05
1.66268e-09
0
1.06056e-06
7.50078e-06
3.45098e-07
1.09811e-08
2.08672e-06
2.10762e-07
0
3.71384e-07
0
0
1.70333e-09
2.42475e-07
0
0.000208103
1.26882e-10
7.9093e-09
2.52845e-10
0
3.42523e-05
1.40048e-08
0
0
0
0
0
0
2.26967e-05
1.17136e-10
6.88215e-09
0
0
3.58491e-09
0
0
3.04339e-05
0
9.78462e-07
0
0
0
4.2959e-09
7.94824e-09
0
0
0
4.25454e-08
4.94328e-08
0
2.03183e-07
3.3573e-07
0
0
0
1.10502e-07
8.23433e-08
0
0
0
1.42913e-07
0
0
0
0
0
0
0
0
6.6537e-09
1.75836e-10
0
0
6.99291e-07
0
0
4.21361e-05
3.43009e-06
1.09225e-10
0
6.66523e-09
0
3.75647e-06
0
0
6.85519e-07
0
0
2.39905e-06
0
0
7.69681e-08
0
8.26272e-05
1.30012e-09
0.00013262
6.85459e-06
0
0
0
6.20803e-06
6.88181e-06
2.02913e-09
0
1.85541e-08
0
0
0
0
0
1.33896e-07
1.46251e-07
1.98932e-10
1.59446e-07
0
0
3.37104e-05
7.07879e-06
2.15842e-07
0
2.54994e-06
1.73726e-10
0.000103918
0
1.20705e-07
1.20549e-07
1.13165e-05
3.06687e-06
0
9.23219e-08
0
9.88407e-06
3.82645e-08
7.41559e-05
1.05736e-06
0
0
0
0
1.35525e-07
4.56432e-09
0
0
0
2.61882e-05
0
2.51826e-05
2.97457e-06
2.35429e-06
2.73484e-06
7.68461e-06
0
0
7.73447e-05
6.71872e-06
0
0
3.36098e-07
5.03228e-07
0
0
9.63032e-06
1.71182e-10
7.7714e-08
0
0.000114098
0
0
0
1.29484e-05
0
7.85276e-06
5.66094e-08
0
0.000139976
1.57348e-08
6.08844e-08
0
2.3136e-05
1.29143e-06
9.82242e-07
8.00653e-05
3.68987e-06
1.26727e-07
5.86462e-08
8.54519e-06
7.45204e-05
0
7.14398e-05
0
0
8.9905e-06
8.53965e-06
0
1.25344e-05
9.87309e-05
0
1.37408e-07
1.33364e-07
0
1.32974e-05
9.68062e-06
4.54587e-10
3.93863e-09
1.82211e-06
0.000139807
0
2.73363e-06
0
0
0
3.97605e-06
0
3.23903e-05
0
3.07705e-07
0
8.90975e-08
1.02882e-06
2.77307e-09
1.68306e-09
8.49958e-07
1.2115e-09
0.000111055
1.58239e-06
0
1.14688e-05
9.62707e-08
3.19771e-05
0
3.5807e-07
6.36729e-07
0
7.08419e-05
2.98508e-07
0
0
4.56454e-05
0
4.70016e-06
0
8.39951e-05
2.75787e-05
1.05289e-10
4.53301e-08
0
0
9.08942e-07
1.38494e-06
0.000226323
0
2.59569e-07
2.91512e-06
1.99081e-06
0.000142981
1.26257e-09
2.34218e-05
0
0
9.702e-08
0
5.77001e-07
0
9.19542e-06
0
0
1.30965e-05
2.79642e-07
0
2.89764e-06
1.65797e-08
5.34839e-05
5.95118e-05
0
8.58546e-08
0
3.40613e-07
0
4.27476e-07
0
0
9.97572e-10
2.53684e-09
0
0.000113243
0
1.04291e-10
2.69166e-07
0
9.8933e-05
0.000121737
7.37242e-07
0
1.49153e-10
0.000126538
0
1.79301e-05
0
0
3.3093e-06
9.19436e-05
1.60617e-10
7.30736e-07
0
0
0
6.83224e-10
1.05018e-06
0
5.87517e-07
8.64021e-07
0
0
0
0
0
1.55151e-05
0
0.00012496
0
0
0
0
0
0
8.01704e-09
1.70927e-06
0
0
3.63086e-05
0
0
0
0
3.91079e-06
1.16141e-05
0
1.00411e-07
0.000141667
0
0
0
7.66027e-08
0
0
2.5214e-08
2.93701e-05
0
2.86908e-06
0
3.82126e-07
7.12325e-06
2.79702e-05
0
2.26198e-07
0.000100236
4.51457e-06
2.32427e-07
0
0.00014883
1.20086e-05
1.51511e-07
4.14891e-09
2.12545e-05
0
0
1.07716e-07
1.97652e-10
1.83303e-07
0
5.84949e-10
1.40804e-07
1.30923e-09
4.32898e-07
0
0
3.42508e-08
9.65527e-07
1.08327e-09
3.24287e-10
6.59596e-07
1.39558e-06
0.000187011
2.37445e-06
0
6.15818e-08
3.66277e-05
2.00268e-05
4.36307e-07
0
7.82494e-06
0
2.98409e-07
0
8.49178e-08
0
1.85102e-05
0
4.47214e-07
0
0
1.55333e-06
0
1.10592e-07
1.6813e-05
0
1.8143e-10
0
2.06643e-06
0
0
0
8.62085e-05
1.53868e-06
1.95518e-06
2.97801e-05
4.47115e-06
0
7.31955e-06
2.48811e-05
0.000164976
2.28067e-06
1.14896e-06
0
1.5608e-10
7.37849e-08
0.000109399
1.84163e-09
9.6212e-07
1.5648e-06
9.24804e-05
0
0
5.44557e-07
1.29067e-10
0
3.51512e-07
5.98009e-06
0
2.77244e-09
0.000117724
0.000131554
1.43958e-06
1.68295e-06
0
0.000143598
0
2.14527e-06
0
0.000150994
0
8.6712e-05
0
0.000119185
1.83869e-06
1.3529e-10
0
2.25751e-08
1.16468e-08
0
2.49964e-08
0
2.65707e-05
0
0
0
0.000143533
1.28951e-08
0
1.05113e-06
0
0
0
9.63915e-08
0
0
1.00366e-07
1.96395e-07
0
1.26243e-08
0
0
0
0
0
1.11995e-06
0
1.96398e-06
0
0
0
5.75821e-08
2.70886e-10
0
0
8.29096e-07
0
1.16795e-05
0
2.14721e-07
1.62943e-05
0
1.79809e-07
1.64064e-09
0
0
1.54426e-07
0.00016437
0
9.69613e-07
1.03773e-10
0
5.44382e-09
2.67498e-06
5.61444e-09
2.82059e-06
6.08196e-09
7.91058e-06
5.55112e-09
2.08416e-06
4.59028e-09
0
0
0
7.91365e-06
0
0
5.50532e-06
0
6.7412e-05
4.95657e-07
2.08663e-05
3.8087e-08
0
0
6.35085e-07
1.02028e-05
0
0
0
8.87439e-06
6.27668e-05
1.32198e-07
1.71095e-07
6.78945e-08
0
3.30428e-10
0
0
3.78041e-05
0
3.15095e-07
9.98426e-06
0
0
8.95871e-07
1.40433e-05
2.27159e-06
0
0
0
0
1.3214e-09
0
1.39127e-09
1.32116e-10
2.99516e-05
0
5.33731e-06
0
1.97186e-09
0
0
0
0.000124418
1.94371e-06
0
6.86091e-10
0
4.66138e-10
7.59844e-06
0
0
1.39248e-08
9.19273e-09
0
1.4203e-08
0
2.92654e-07
6.78775e-08
2.84887e-07
0
0
1.70396e-07
2.03302e-06
0
0
0
0
0
0
1.35385e-07
7.68827e-06
7.14357e-06
0
4.16336e-06
3.43283e-08
2.48966e-08
9.29359e-06
0
5.11937e-09
0
1.9516e-06
3.22303e-06
0
0
0
0
1.03711e-05
9.17479e-06
3.89838e-09
0
0
8.80194e-09
0
0
7.05368e-06
6.63074e-06
8.44099e-09
0
0
6.12325e-08
2.99527e-09
7.73532e-05
9.6248e-05
9.1208e-05
0
0
0
0
0
0
3.62345e-08
3.43523e-08
4.55828e-06
0.00012185
4.76004e-07
6.62839e-07
0
0
0
0
0
0
0.000111147
0
1.6358e-09
2.62971e-09
0.000124198
0
2.04087e-09
8.64289e-06
0
0
0
6.12065e-06
5.43075e-06
0
0
4.83123e-06
0
3.82877e-06
2.2278e-05
7.79265e-06
7.23781e-06
0
0
1.60631e-07
1.15829e-07
0
1.26173e-07
0
0
4.60155e-06
0
0
0
2.15959e-05
0
2.2907e-05
2.51205e-05
0
0
0
1.31678e-10
0
0
4.95491e-05
7.0711e-06
7.5949e-08
1.85323e-08
0
0
1.48385e-07
2.19151e-07
0
2.33073e-05
3.40961e-08
0
0
1.65412e-08
9.19888e-08
1.41e-07
0
0
0
1.37816e-06
0
7.62478e-08
0
8.42314e-08
5.25038e-08
0
0
2.6295e-07
0
1.35768e-08
2.76649e-06
1.57852e-07
1.62331e-10
0
6.22067e-05
7.06459e-05
1.33479e-07
7.92495e-05
7.37421e-05
0
2.276e-07
1.57282e-07
7.80838e-05
5.42604e-05
0
3.74488e-06
0
0
0
3.98749e-05
0
2.98314e-05
1.90118e-10
3.08994e-06
0
4.93969e-10
0
3.05685e-06
2.69069e-10
0
2.35066e-06
2.02633e-10
5.67203e-06
1.56849e-09
7.83297e-06
2.83377e-09
1.21033e-09
0
5.65073e-06
1.07053e-09
2.78429e-10
3.98197e-06
4.27582e-10
0
2.64767e-06
2.36693e-10
2.14067e-06
0
3.02497e-06
1.76543e-10
5.36262e-09
0.000221836
0
1.79621e-05
0
2.03303e-05
0
0
8.63396e-05
0
8.87304e-06
0
0.000102768
9.06918e-06
8.73786e-09
4.4558e-09
3.02295e-09
0
4.56988e-10
1.71673e-07
0.000141292
1.59004e-10
6.66995e-07
6.32609e-05
1.31927e-05
1.19696e-07
0.000113755
1.17033e-09
0
0
9.73242e-05
0
9.91774e-06
0
3.62195e-05
5.21307e-07
8.15538e-07
0
0
0
0
6.08296e-08
1.06751e-09
2.13657e-07
1.42478e-07
0
0.000136785
7.81883e-07
6.46756e-07
5.11212e-09
4.17864e-05
2.04159e-09
6.41228e-07
0.00011926
2.11638e-06
1.10542e-06
0
3.85423e-07
0
2.31554e-06
0
0
0
0
0
0
0
6.09047e-07
5.00301e-05
0.000120211
4.70136e-07
3.35896e-05
3.97421e-09
0.000106352
0
0
8.94704e-07
6.50675e-05
5.95087e-09
0
0
6.38161e-09
1.48583e-06
8.49121e-09
0
0
0
2.35323e-05
0
0
0
0.000123807
0
0
0
0
0
0
0
6.33634e-07
0
0
0
2.24752e-05
0
0
9.3423e-08
0
2.41212e-07
0
4.0655e-08
1.28403e-10
2.42066e-07
0
0
0
1.67567e-05
0.000101706
0
5.47444e-07
0
1.994e-07
1.37861e-10
1.3143e-07
0
0
4.7849e-05
2.65836e-07
0
0
1.51581e-10
2.89233e-05
3.77376e-05
4.04017e-05
0
1.98961e-10
3.17967e-05
0
0
6.28133e-05
0
5.09599e-05
5.38052e-05
1.06427e-10
0
1.49925e-07
0
0
9.16354e-08
1.62746e-07
1.19079e-07
0
2.17997e-06
0
0
1.13183e-06
0
3.08274e-06
1.91194e-10
0
0
0
2.34048e-09
0
0
0
3.70334e-05
0
1.56463e-10
0
2.43941e-10
1.79213e-10
0
1.53849e-06
0.000251938
1.11975e-06
0.000229481
6.1932e-07
1.09771e-09
0.000138394
6.4681e-07
0
4.96745e-07
0
4.30645e-10
3.78146e-06
0
0
0
4.45913e-09
7.99143e-06
0
2.87949e-06
1.9211e-07
0
3.53507e-05
4.18053e-06
0.000127734
3.32094e-10
9.24032e-08
7.25742e-10
2.12962e-07
1.77172e-10
3.87894e-05
8.60928e-10
1.98007e-05
0
1.9477e-09
0
0
0
4.39247e-10
1.06812e-05
0
7.16025e-06
0
0
4.47128e-08
0
0
7.82177e-05
0
5.30346e-06
0
0
9.9094e-05
0
3.13898e-05
9.46665e-08
0
8.10893e-05
0
0.000121707
0
0
1.59266e-06
0
8.9764e-07
0
1.28641e-05
1.11936e-06
0
0
0
0
1.77071e-09
9.35296e-07
2.637e-09
1.15325e-06
0
0
0
0
1.68212e-06
0
0
8.14358e-07
1.32646e-06
0
0
0
0
0
0
1.57988e-08
3.01485e-08
0
0
0
0
0
0
0
2.79163e-07
0
0
0
7.95937e-05
0
0
0
1.6055e-08
0
0
9.44529e-09
5.50639e-07
0
1.04684e-10
0
1.19048e-06
8.79925e-07
0
0
0
0
4.19394e-05
5.62834e-05
4.62117e-05
0
0
6.83639e-07
2.17614e-10
9.15173e-07
8.27958e-07
5.1329e-06
0.000147607
7.78551e-05
9.84956e-05
9.10603e-05
0
0
1.17237e-05
0
0
0
4.87592e-05
6.26424e-05
0
5.00108e-05
0
0
0
0
6.00051e-07
6.35441e-07
0
0
4.73138e-05
0
0
2.33418e-09
1.58069e-10
2.00077e-10
2.02717e-10
5.94207e-05
6.76737e-05
5.36111e-05
3.202e-06
0
0
2.28232e-05
0
2.08613e-05
1.75358e-05
0
0
0
0
0
2.147e-08
1.0145e-08
7.79579e-09
1.31542e-07
1.98071e-07
1.28232e-07
0
0
0
0
0
0
0
0
6.41209e-06
5.89522e-06
8.39788e-06
5.39556e-05
4.13015e-05
5.42071e-05
0
6.4386e-05
1.19784e-10
1.26219e-10
1.00901e-10
7.48983e-08
0
4.44517e-08
0
2.49988e-08
2.28048e-08
0
0
0.00010051
9.71754e-06
1.3261e-05
1.18597e-05
1.28555e-05
6.02521e-07
0
2.69328e-08
3.97708e-06
2.16654e-08
5.94819e-05
1.81594e-07
1.01658e-07
1.0294e-05
6.34292e-08
1.19341e-07
5.88566e-06
0
6.81546e-09
0
2.89925e-05
3.70418e-05
0
0
0
4.80604e-06
3.48902e-06
3.96073e-06
6.75436e-06
8.67968e-06
8.40183e-06
5.75662e-05
5.63413e-05
0
5.12301e-05
4.28211e-05
0
3.39261e-06
0
3.25391e-06
2.67369e-06
0
1.5082e-06
0
0
0
0
6.50013e-06
1.08577e-05
0
1.48369e-05
8.22611e-10
1.50335e-09
1.02652e-09
4.702e-06
6.69882e-06
5.41355e-06
4.94718e-06
4.00479e-06
0
5.17825e-06
0
5.335e-06
4.94325e-10
2.02157e-10
2.07462e-10
0
0
0.000102778
9.39013e-05
8.01395e-05
0
0
0
0
0
0
8.66866e-07
0
0
3.95841e-06
0
5.17151e-09
0
0
0
2.39953e-07
1.14507e-08
0
1.4704e-08
2.70393e-06
2.44468e-08
0
0
0
5.27341e-05
0
0
3.79534e-05
0
5.78429e-08
7.97148e-06
1.4621e-05
0
8.00288e-06
0
7.24185e-06
1.33818e-05
0
5.90924e-06
0
0
3.68823e-05
0
1.40143e-07
2.40072e-05
2.20328e-05
0
2.23674e-05
1.90814e-05
0
0
0
3.00443e-05
3.84064e-07
0
0
2.43341e-07
0
0
1.22738e-07
7.79332e-08
5.52749e-08
3.17628e-07
5.14065e-07
3.92843e-07
0
0
0
0
0
0
0
0
0
1.47624e-05
1.26821e-05
1.56252e-05
1.91308e-05
2.22421e-05
0
1.19631e-05
1.7947e-05
1.14266e-07
0
6.99749e-08
0
3.75748e-08
4.33261e-08
9.47741e-09
0
2.41687e-05
2.86791e-08
0
4.23919e-07
3.41183e-09
0
0
0
0
0
1.82667e-06
9.00995e-05
9.45949e-08
0
0
2.66838e-09
1.32036e-06
1.21173e-06
8.32866e-09
0
7.99496e-06
0
8.15877e-06
5.82794e-06
0
5.12226e-08
3.38928e-06
2.31949e-07
2.62846e-06
3.33329e-05
3.91664e-05
4.27341e-05
0
1.61086e-07
0
0
0
0
0
0
7.7086e-05
0
2.89501e-08
1.95908e-08
1.62861e-08
0
4.13757e-10
5.70655e-10
8.48733e-05
0.000102807
9.05365e-05
8.4109e-05
7.69024e-06
0
7.08405e-06
5.74952e-06
0
0
1.19327e-08
0
7.20716e-09
0
0
9.24446e-09
0
7.65041e-05
9.42915e-05
8.14813e-05
7.48833e-05
0
0
1.67347e-05
4.08898e-07
0
1.44934e-05
1.36846e-06
0
0
0
6.49881e-07
6.02421e-07
8.27367e-06
6.64293e-06
0
0
0
0
3.922e-06