# vtk DataFile Version 2.0
Unstructured Grid by M++
ASCII
DATASET UNSTRUCTURED_GRID
POINTS 4072 float
  0.562500   0.968750 0
  0.906250   0.500000 0
  0.750000   0.781250 0
  0.953125   0.531250 0
  0.984375   0.875000 0
  0.828125   0.828125 0
  0.828125   0.859375 0
  0.562500   0.765625 0
  0.937500   0.687500 0
  0.968750   0.578125 0
  0.968750   0.781250 0
  0.734375   0.843750 0
  0.968750   0.718750 0
  0.734375   0.796875 0
  0.984375   0.718750 0
  0.984375   0.703125 0
  1.000000   0.750000 0
  0.984375   0.734375 0
  1.000000   0.718750 0
  0.953125   0.859375 0
  0.953125   0.843750 0
  0.937500   0.843750 0
  0.921875   0.640625 0
  0.937500   0.625000 0
  0.671875   0.906250 0
  0.687500   0.890625 0
  1.000000   0.687500 0
  0.828125   0.796875 0
  0.828125   0.750000 0
  0.515625   0.750000 0
  0.828125   0.937500 0
  0.968750   0.625000 0
  0.984375   0.593750 0
  0.984375   0.796875 0
  0.750000   0.859375 0
  0.859375   0.937500 0
  0.828125   0.953125 0
  0.859375   0.781250 0
  0.593750   0.515625 0
  0.984375   0.750000 0
  0.734375   0.828125 0
  1.000000   0.734375 0
  0.750000   0.812500 0
  0.953125   0.562500 0
  0.968750   0.750000 0
  0.734375   0.812500 0
  0.968750   0.546875 0
  0.843750   0.906250 0
  0.875000   0.875000 0
  0.578125   0.640625 0
  0.750000   0.968750 0
  0.984375   0.906250 0
  0.625000   0.515625 0
  0.937500   0.593750 0
  0.781250   0.578125 0
  0.640625   0.968750 0
  0.937500   0.531250 0
  0.937500   0.515625 0
  0.953125   0.500000 0
  0.703125   0.796875 0
  0.859375   0.718750 0
  0.703125   0.765625 0
  0.921875   0.703125 0
  0.687500   0.765625 0
  0.921875   0.500000 0
  0.718750   0.781250 0
  0.734375   0.765625 0
  0.968750   0.687500 0
  0.968750   0.890625 0
  0.734375   0.953125 0
  0.859375   0.828125 0
  0.890625   0.484375 0
  0.843750   0.843750 0
  0.828125   0.765625 0
  0.968750   0.906250 0
  0.796875   0.578125 0
  0.765625   0.828125 0
  0.609375   0.968750 0
  0.734375   0.656250 0
  0.671875   0.875000 0
  0.531250   0.906250 0
  0.546875   0.921875 0
  0.765625   0.656250 0
  0.531250   0.937500 0
  0.531250   0.734375 0
  0.765625   0.671875 0
  0.843750   0.734375 0
  0.843750   0.937500 0
  0.609375   1.000000 0
  0.593750   0.796875 0
  0.828125   0.734375 0
  0.578125   0.812500 0
  0.671875   0.562500 0
  0.781250   0.562500 0
  0.656250   1.000000 0
  0.765625   0.796875 0
  0.656250   0.593750 0
  0.796875   0.562500 0
  0.625000   0.828125 0
  0.625000   0.625000 0
  0.859375   0.562500 0
  0.796875   1.000000 0
  0.890625   0.781250 0
  0.875000   0.781250 0
  0.625000   0.859375 0
  0.843750   0.781250 0
  0.859375   0.765625 0
  0.843750   0.765625 0
  0.859375   0.750000 0
  0.843750   0.750000 0
  0.765625   1.000000 0
  0.781250   0.984375 0
  0.875000   0.625000 0
  0.875000   0.812500 0
  0.640625   0.875000 0
  0.562500   0.906250 0
  0.796875   0.843750 0
  0.796875   0.828125 0
  0.656250   0.906250 0
  0.890625   0.640625 0
  0.875000   0.843750 0
  0.859375   0.843750 0
  0.625000   0.906250 0
  0.812500   0.875000 0
  0.859375   0.515625 0
  0.812500   0.843750 0
  0.796875   0.875000 0
  0.796875   0.859375 0
  0.593750   0.968750 0
  0.859375   0.875000 0
  0.625000   0.937500 0
  0.843750   0.875000 0
  0.593750   0.953125 0
  0.859375   0.859375 0
  0.828125   0.671875 0
  0.890625   0.765625 0
  0.656250   0.828125 0
  0.656250   0.625000 0
  0.890625   0.562500 0
  0.640625   0.843750 0
  0.640625   0.640625 0
  0.875000   0.578125 0
  0.890625   0.750000 0
  0.875000   0.765625 0
  0.562500   0.625000 0
  0.968750   0.500000 0
  0.734375   0.562500 0
  0.937500   0.578125 0
  0.703125   0.640625 0
  0.656250   0.984375 0
  0.640625   1.000000 0
  0.953125   0.578125 0
  0.671875   0.984375 0
  0.906250   0.921875 0
  0.921875   0.687500 0
  0.671875   0.765625 0
  0.687500   0.750000 0
  0.906250   0.484375 0
  0.984375   0.921875 0
  0.734375   1.000000 0
  1.000000   0.906250 0
  0.750000   0.984375 0
  0.828125   0.843750 0
  0.593750   0.906250 0
  0.828125   0.640625 0
  0.843750   0.828125 0
  0.609375   0.890625 0
  0.609375   0.687500 0
  0.843750   0.625000 0
  0.734375   0.875000 0
  0.968750   0.812500 0
  0.859375   0.812500 0
  0.625000   0.875000 0
  0.859375   0.609375 0
  0.843750   0.812500 0
  0.859375   0.796875 0
  0.828125   0.812500 0
  0.593750   0.875000 0
  0.828125   0.609375 0
  0.781250   0.843750 0
  0.515625   0.921875 0
  1.000000   0.781250 0
  0.765625   0.843750 0
  1.000000   0.578125 0
  0.765625   0.968750 0
  0.890625   0.703125 0
  0.656250   0.765625 0
  0.890625   0.500000 0
  0.875000   0.703125 0
  0.937500   0.937500 0
  0.984375   0.578125 0
  0.578125   0.531250 0
  0.875000   0.609375 0
  0.640625   0.671875 0
  0.796875   0.625000 0
  0.859375   0.593750 0
  0.625000   0.656250 0
  0.609375   0.671875 0
  0.593750   0.687500 0
  1.000000   0.562500 0
  0.765625   0.625000 0
  0.656250   0.578125 0
  0.625000   0.546875 0
  0.671875   0.812500 0
  0.906250   0.750000 0
  0.796875   0.546875 0
  0.828125   0.718750 0
  0.578125   0.781250 0
  0.875000   0.656250 0
  0.640625   0.718750 0
  0.734375   0.984375 0
  0.968750   0.921875 0
  0.609375   0.531250 0
  0.953125   0.921875 0
  0.968750   0.937500 0
  0.593750   0.546875 0
  0.765625   0.609375 0
  0.531250   0.671875 0
  0.781250   0.593750 0
  0.546875   0.656250 0
  0.656250   0.656250 0
  0.890625   0.593750 0
  0.656250   0.859375 0
  0.921875   0.671875 0
  0.968750   0.734375 0
  0.718750   0.812500 0
  0.812500   0.984375 0
  0.562500   0.796875 0
  0.750000   0.640625 0
  0.765625   0.687500 0
  0.531250   0.953125 0
  0.687500   0.656250 0
  0.921875   0.593750 0
  1.000000   0.593750 0
  0.750000   0.671875 0
  0.671875   0.750000 0
  0.906250   0.687500 0
  1.000000   0.656250 0
  0.812500   0.562500 0
  0.687500   0.796875 0
  0.921875   0.734375 0
  0.828125   0.546875 0
  1.000000   0.625000 0
  0.953125   0.968750 0
  0.750000   0.906250 0
  0.515625   0.968750 0
  0.812500   0.531250 0
  1.000000   0.796875 0
  0.515625   0.937500 0
  0.750000   0.875000 0
  0.812500   0.703125 0
  0.796875   0.703125 0
  0.812500   0.593750 0
  0.937500   0.562500 0
  0.656250   0.968750 0
  0.890625   0.906250 0
  0.703125   0.625000 0
  0.953125   0.546875 0
  0.671875   0.953125 0
  0.906250   0.890625 0
  0.984375   0.781250 0
  0.796875   0.687500 0
  0.562500   0.953125 0
  0.968750   0.875000 0
  0.718750   0.953125 0
  0.562500   0.937500 0
  0.781250   0.781250 0
  0.953125   0.875000 0
  0.718750   0.937500 0
  0.953125   0.671875 0
  0.796875   0.656250 0
  0.828125   1.000000 0
  0.953125   0.890625 0
  0.703125   0.968750 0
  0.828125   0.625000 0
  0.781250   0.968750 0
  0.781250   0.671875 0
  0.781250   0.875000 0
  0.546875   0.937500 0
  0.906250   0.640625 0
  0.671875   0.703125 0
  0.640625   0.609375 0
  0.875000   0.546875 0
  0.906250   0.625000 0
  0.656250   0.703125 0
  0.656250   0.718750 0
  0.968750   0.531250 0
  0.734375   0.593750 0
  0.984375   0.531250 0
  0.781250   0.546875 0
  0.718750   0.609375 0
  0.906250   0.703125 0
  0.968750   0.593750 0
  0.687500   1.000000 0
  0.921875   0.937500 0
  0.906250   0.765625 0
  0.906250   0.562500 0
  0.718750   0.750000 0
  0.718750   0.546875 0
  0.953125   0.484375 0
  0.796875   0.593750 0
  0.515625   1.000000 0
  0.750000   0.937500 0
  0.906250   0.593750 0
  0.546875   1.000000 0
  0.781250   0.937500 0
  0.828125   0.593750 0
  0.984375   0.609375 0
  0.937500   0.953125 0
  0.796875   0.515625 0
  0.968750   0.609375 0
  0.734375   0.671875 0
  0.906250   0.781250 0
  0.671875   0.843750 0
  0.515625   0.890625 0
  0.687500   0.625000 0
  0.921875   0.562500 0
  0.843750   0.531250 0
  1.000000   0.765625 0
  0.750000   0.843750 0
  0.812500   0.671875 0
  0.687500   0.921875 0
  0.765625   0.515625 0
  0.953125   0.609375 0
  0.921875   0.625000 0
  0.687500   0.687500 0
  0.812500   0.656250 0
  0.812500   0.859375 0
  0.578125   0.921875 0
  0.796875   0.765625 0
  0.890625   0.687500 0
  0.578125   0.750000 0
  0.812500   0.687500 0
  0.578125   0.953125 0
  0.796875   0.796875 0
  0.984375   0.890625 0
  0.734375   0.968750 0
  0.718750   0.640625 0
  0.968750   0.562500 0
  0.687500   0.968750 0
  0.921875   0.906250 0
  0.765625   0.953125 0
  0.812500   0.609375 0
  0.812500   0.734375 0
  0.875000   0.562500 0
  0.968750   0.656250 0
  0.796875   0.734375 0
  0.812500   0.828125 0
  0.578125   0.890625 0
  0.781250   0.687500 0
  0.984375   0.671875 0
  0.578125   0.828125 0
  0.812500   0.765625 0
  0.875000   0.593750 0
  1.000000   0.875000 0
  0.765625   0.937500 0
  0.843750   0.656250 0
  0.843750   0.859375 0
  0.609375   0.921875 0
  0.828125   0.687500 0
  0.937500   0.656250 0
  0.937500   0.859375 0
  0.703125   0.921875 0
  0.984375   0.640625 0
  0.890625   0.468750 0
  0.656250   0.734375 0
  0.890625   0.671875 0
  0.890625   0.875000 0
  0.656250   0.937500 0
  0.578125   0.859375 0
  0.812500   0.796875 0
  0.843750   0.890625 0
  0.609375   0.953125 0
  0.937500   0.875000 0
  0.687500   0.953125 0
  0.843750   0.953125 0
  0.828125   0.703125 0
  0.593750   0.765625 0
  0.937500   0.546875 0
  0.781250   0.531250 0
  0.781250   0.734375 0
  0.546875   0.796875 0
  0.796875   0.718750 0
  0.562500   0.984375 0
  0.984375   0.812500 0
  0.562500   0.812500 0
  0.796875   0.750000 0
  0.562500   0.875000 0
  0.796875   0.812500 0
  0.640625   0.750000 0
  0.875000   0.687500 0
  0.703125   0.671875 0
  0.937500   0.609375 0
  0.562500   0.843750 0
  0.796875   0.781250 0
  0.781250   0.750000 0
  0.781250   0.609375 0
  0.812500   0.953125 0
  0.812500   0.718750 0
  0.953125   0.593750 0
  0.718750   0.656250 0
  0.671875   1.000000 0
  0.796875   0.953125 0
  0.843750   0.609375 0
  0.812500   0.812500 0
  0.812500   0.781250 0
  0.750000   0.953125 0
  0.750000   0.750000 0
  0.984375   0.687500 0
  0.781250   1.000000 0
  0.765625   0.546875 0
  0.765625   0.750000 0
[...]
POINT_DATA 4072
SCALARS scalar_value float 1
LOOKUP_TABLE default
6.90366e-07
-1.38076e-07
2.67424e-05
3.87499e-09
0
1.39561e-07
3.26796e-09
-8.79301e-05
1.83369e-08
-4.13917e-09
1.25226e-10
6.70726e-08
1.70279e-09
2.68373e-05
-2.78574e-10
0
0
-2.25577e-10
3.11707e-10
0
0
0
6.03609e-08
4.59832e-08
-1.50278e-08
-2.35724e-08
1.05331e-09
5.77175e-07
-3.59397e-07
0.000417532
2.34899e-09
6.94644e-09
-2.3372e-10
2.03074e-10
9.9499e-08
2.58095e-10
-1.02129e-09
-2.28833e-07
1.65251
-1.47176e-10
2.33233e-06
0
6.8561e-06
1.13731e-09
8.956e-10
-9.84225e-06
-2.41964e-10
-3.34739e-10
0
0.222413
-5.99242e-10
0
1.69552
1.57459e-08
-0.000991478
-1.58587e-08
2.08097e-09
2.07391e-08
2.03192e-08
6.90988e-05
8.02353e-09
0.000316083
-1.76921e-08
-0.000558082
4.80001e-07
9.67225e-05
7.06845e-05
3.64202e-09
0
2.64272e-09
1.41982e-08
-3.01812e-06
2.00159e-08
6.80341e-07
0
0.000255444
1.95116e-06
-8.15164e-08
0.00200238
-6.17347e-08
1.52142e-05
6.70104e-06
-3.49795e-05
7.84858e-06
-0.00203101
-1.73274e-05
-3.19783e-08
-7.78104e-10
0
-0.000217066
7.23536e-08
0.00064277
1.97607
7.90284e-05
0
9.18087e-06
0.277278
-0.000114533
2.34256e-05
0.182594
-4.86987e-07
0
-1.90988e-07
1.88649e-07
-1.60136e-06
3.9797e-07
1.70024e-07
-3.46655e-07
-8.14992e-08
1.48544e-07
0
0
1.12946e-06
3.91748e-08
-4.20142e-07
3.31268e-06
-1.68739e-07
7.76826e-07
2.11756e-08
2.20095e-07
4.57e-09
-3.17197e-09
7.8744e-08
9.80224e-09
1.97952e-06
9.29305e-08
-1.09928e-07
1.77291e-07
1.72117e-07
0
9.58657e-08
1.15797e-09
-4.3608e-07
0
7.29964e-07
-5.90558e-08
1.26169e-05
0.0583672
-1.30743e-07
3.86901e-06
-0.00222618
-1.63533e-07
-1.23385e-07
-3.47742e-08
0.0426555
-5.81981e-09
0.0418014
-1.58255e-08
0.0175188
-1.31056e-08
0
7.96695e-09
6.07742e-09
0
-3.41949e-08
0.00126328
0.000803153
1.27746e-06
0
0
0
1.10839e-09
-4.40364e-08
6.67689e-07
5.81284e-06
-5.47961e-08
1.36e-07
0.117956
5.5356e-06
5.11363e-08
0
-5.87156e-08
4.31442e-07
2.85401e-06
1.35372e-07
2.10182e-07
-3.08421e-07
1.92228e-07
2.02498e-05
-3.27403e-07
2.30203e-05
0
-3.77322e-07
-1.52037e-09
-1.69569e-09
-1.16162e-07
-0.00222165
-2.9252e-06
8.08986e-08
0
1.92202e-09
1.84739
-1.00012e-06
0.00140503
-6.73689e-05
-2.22204e-06
0.0823841
0.0373121
0.425886
-2.42545e-10
-0.000279205
0.173212
1.41935
-1.50069e-05
8.97536e-08
6.63974e-05
1.97231e-07
0.00626934
4.77059e-07
-0.00221435
1.25332e-09
0
0.347644
0
0
1.28877
0.000300454
-0.00987899
0.000294524
0.0416685
0.0161626
-2.81542e-07
2.5615e-07
1.03744e-08
9.23735e-10
1.3428e-05
0
-0.00242734
0.000653241
-5.70078e-06
-5.90552e-06
0.0118908
-5.51459e-08
2.96237e-10
0.000175519
-0.00144332
5.13424e-08
2.0169e-09
3.92328e-05
-9.83687e-05
-2.58456e-08
-2.52923e-06
1.63885e-09
0
-7.54285e-09
-4.48152e-06
4.0082e-06
-1.24172e-10
-1.66484e-05
-5.95751e-08
-6.2832e-07
-6.29499e-06
7.22572e-05
-2.00653e-08
6.30289e-09
0
0.0312609
1.60316e-09
9.71208e-09
0
0
-8.18637e-06
-1.66716e-06
0
6.6583e-10
2.07369e-06
4.77202e-06
0
1.68927e-09
3.77939e-09
-1.75702e-05
0
0
3.15678e-10
-1.21121e-05
-1.05661e-09
-1.97391e-05
-1.46462e-07
-4.11237e-06
-1.76126e-07
0.0028307
-0.00782763
-3.86732e-07
1.90694e-07
0.000402046
0.000291388
-1.23321e-09
0.0166855
3.77665e-10
-0.000539663
0.0303277
3.71262e-08
2.00746e-09
0
0
7.93651e-08
2.28885e-07
0.000154473
0.22198
-1.68781e-08
-0.000204484
0
-6.56226e-09
3.75777e-08
0
-1.72209e-08
-2.69735e-05
2.48899e-09
0
0.000341954
-5.34968e-09
0.000983206
1.62524e-07
3.04091e-06
-3.52581e-06
0.0428462
-7.30976e-09
4.02644e-06
0
2.31277e-07
-2.39854e-06
-6.56381e-09
-0.00179744
9.5774e-09
-1.09999e-07
0.00284564
2.29796e-07
-3.2187e-08
1.53879e-06
2.25369e-06
-1.59981e-07
0.0346505
-1.36493e-06
8.61401e-07
2.28447e-06
0
0
0.0100979
-1.27306e-10
8.73304e-10
0
3.00508e-09
-5.38668e-05
-1.35352e-07
6.4416e-08
6.98329e-09
-2.59669e-06
-3.4744e-07
1.24153e-06
-1.34676e-05
1.39305e-09
-4.8523e-05
-1.39461e-06
6.56255e-07
0
-1.01617e-08
1.16843e-06
-2.78371e-09
3.46703e-07
2.32612e-07
3.75096e-08
0
4.23437e-09
2.79343e-09
-3.45434e-06
0.00146925
-3.73794e-08
0
1.37092e-08
9.16744e-06
-1.17082e-06
-4.57434e-10
2.17101e-07
0
-3.321e-09
5.4554e-10
1.31017e-07
-0.0165961
-1.12058e-08
-0.000811632
-5.0224e-06
-0.00126167
-3.79421e-06
-6.20017e-07
0
0.00138183
-3.6398e-06
-5.68064e-06
-1.38124e-06
-0.0104197
1.35271e-07
0.00498809
-1.85622e-08
9.05435e-05
-3.77539e-06
9.95676e-07
-0.000386312
1.55711e-09
-5.12761e-07
-6.33158e-09
0.00531786
0
-1.53574e-09
-7.78273e-06
6.59281e-07
1.64958e-06
9.36003e-10
2.43163e-05
-8.0856e-10
0
-0.00151847
-1.00178e-05
0.000644672
1.16955e-07
1.31714e-08
-0.000484462
8.89972e-07
-2.21577e-06
1.10004e-05
-3.32887e-10
-0.00150232
1.40807e-06
-2.91595e-06
0
-1.45843e-09
-1.89036e-08
0.00127994
-2.87191e-08
0
-9.29192e-09
3.10123e-10
0.00135751
4.56676e-09
-0.000930586
0.000315199
1.3134e-09
0.00178748
0.0202008
1.26279e-07
-0.000763011
3.7598e-10
0.00162069
3.04464e-05
0.000885668
5.66493e-08
-0.000490654
-2.78834e-08
-6.92421e-08
-1.86931e-07
0
-7.02179e-07
0.0013857
0.0668421
-7.68085e-08
0
0
-4.29746e-05
-4.1425e-09
0
-6.38044e-07
0.144301
-1.14102e-07
-0.000157774
-3.33575e-10
-2.37847e-06
0.0789767
0
0
-2.8982e-09
2.40896e-07
-2.02284e-10
0
-3.44889e-07
1.20902e-10
0
0
0
0
0
1.27068e-10
-1.32334e-05
0
2.96384e-10
0.454441
0
-2.66977e-10
0
0.540089
-1.96028e-09
1.09382e-10
0
0
-1.59146e-06
7.05865e-08
0.00668436
7.54608e-08
-1.16109e-07
-0.00602106
-3.77174e-08
0.00425254
1.45216e-06
0.0772608
2.21002e-07
0.0560279
4.58267e-06
-1.94013e-09
0
0
-5.97879e-06
0.646724
0
0.395083
0
-1.17192e-06
0.133027
0
-1.05235e-06
0.353472
0
0.191849
0
0
1.2234
0
2.24431e-09
0
0.813071
0
-2.23575e-09
0.000405178
0
-1.08398e-05
1.309
0
-3.03411e-06
-0.0336091
0.0908677
0
-2.17146e-08
-0.00608898
-1.32644e-08
0
3.69983e-08
-0.000743145
-7.52624e-08
1.06101e-07
-2.49143e-07
-7.86592e-09
0
-1.91052e-09
1.26126e-06
-0.00105376
7.38344e-08
2.73292e-08
-7.15171e-06
-0.000968211
3.21295e-05
1.00824e-07
5.51257e-06
0.000107532
0.141934
-4.8688e-05
1.24403
0.000104105
0.0318202
-8.28807e-05
0.0415543
0.906544
0.0678095
1.03571e-06
0
0
6.58832e-08
3.04328e-07
6.82568e-08
-5.33918e-08
2.40879e-10
0
-2.28688e-06
0
0
0
0
0
-3.50926e-07
-1.12587e-08
1.70712e-09
-1.03756e-08
-1.9814e-07
1.87309e-09
0
0
-7.89516e-09
0
0
0
0
0
0
0
0
0
8.04869e-10
0
0
0
4.72578e-07
-3.41942e-09
4.96079e-07
-1.06301e-08
1.38408e-09
0
0
0
3.6844e-08
9.71398e-07
9.33958e-09
-2.05887e-06
-1.57111e-09
-1.42948e-09
0
2.04577e-09
0
0
0
-9.72677e-09
0
0
0
1.36984e-09
3.47143e-05
-3.17876e-09
0
0
-8.65614e-09
-9.6029e-08
0.000539053
-6.02015e-07
-6.57445e-10
0
0
0
-7.82062e-07
2.86735e-07
1.92265e-09
3.41407e-10
3.00758e-08
-1.58805e-09
0
-8.8285e-05
-6.41814e-06
-3.63424e-09
-1.67474e-05
1.16088e-08
0.00052707
-3.683e-07
5.39383e-10
0
1.71153e-09
-0.000166433
1.2011e-08
0
0
0
-1.15317e-05
1.00438e-07
4.87382e-07
3.20828e-09
1.37896e-08
-5.38501e-09
0
0
3.37929e-06
0.00553206
5.60767e-07
6.14341e-05
3.04871e-08
-5.69246e-10
1.54806e-05
0.000333637
-1.35207e-05
-0.000716552
-9.69018e-06
7.65226e-05
-4.36527e-06
9.68718e-07
-2.20619e-08
-4.34749e-08
7.03348e-09
4.96162e-08
0
-7.68993e-08
0.000462059
0.497504
0
0.191296
-0.00769086
-0.000585826
-3.82523e-06
-9.06776e-06
2.63746e-09
0.242606
0
0.842605
0.000144116
-0.000673805
1.2435e-09
-0.0903455
-7.45343e-07
-7.32857e-10
0.764415
-8.46156e-05
8.16313e-08
0.0159728
-6.76284e-07
5.78224e-08
0
0.0473397
0.0253971
0
-8.38316e-06
0.000551864
0.459406
8.36384e-06
-6.76056e-09
1.47545
0.00160496
0.00827744
3.44466e-09
-0.0184696
-0.000218846
-0.000479836
-1.79856e-05
0
0.193198
0.000227454
0.126997
0.000971385
0.00012108
-4.74931e-06
4.89339e-05
-4.56703e-05
9.7495e-07
0.000208181
0.31993
-0.000984556
1.0988
-7.20284e-08
-0.000115514
-1.29165e-05
-1.78352e-05
0.000301932
-1.9584e-08
-0.00227803
-8.5819e-05
0.0954894
-0.00045974
-0.000142006
-8.46246e-05
-5.24403e-07
-0.00100696
8.59486e-05
0
0.775404
-0.00218126
0.924338
9.67787e-09
-0.00036752
5.71843e-06
-9.89614e-06
0.045119
-0.000133606
2.58378e-09
0.368407
-1.05614e-06
3.79341
0.4194
7.2767e-08
1.28706e-07
0.000173641
0.152775
9.29168e-07
1.20372e-09
-8.44987e-05
1.02443e-05
0.000149171
-4.85169e-05
-4.16601e-05
0.780438
-0.000521126
-2.72743e-08
0.00540554
-0.0110308
0.00485721
-4.05362e-06
-1.11427e-05
-5.11184e-07
9.81017e-07
-0.00261053
-3.99118e-05
-0.000114146
4.86941e-06
3.13931e-10
-4.41663e-07
0.461213
0.157283
0
4.04645e-06
0.10205
-0.00062686
0.200762
8.05214e-05
7.12888e-08
2.13667e-10
0.188009
0.0434793
-8.15305e-08
0.00355642
-0.0214619
0
0.000518067
0.0558133
0.000200882
0.000265506
-1.99949e-07
-9.17458e-08
4.12301e-10
2.61809e-05
1.56007e-06
6.08263e-09
0.27566
0.109441
0.0140566
0.00684918
-0.000415334
0.0174985
-1.08962e-06
2.05773e-08
0.121549
0.0715809
0.0187674
0.00676465
0.00384164
0.00134086
0.0582958
-0.00156353
5.99076e-07
1.25572
0.115661
2.21044e-07
-4.195e-07
-8.44061e-08
0.238216
0.0595892
-1.00039e-07
-5.68598e-07
3.37499e-08
4.89139e-07
-1.14512e-06
0.463155
0.0401363
1.10463e-07
-1.61532e-08
2.05095e-07
1.68829e-10
0.27573
0
-0.00730202
9.79245e-07
-3.00812e-07
0.38465
-5.85156e-07
-5.04777e-05
6.18838e-05
-1.30723e-06
0.00160584
-4.99399e-06
-2.24302e-07
-0.000134301
0.000306991
2.18984e-09
0.108674
0.000710346
-7.20183e-05
1.22228e-05
-2.05911e-05
1.46757e-05
-5.08415e-06
-0.000971035
-0.00178737
0.0144682
-3.71701e-08
-0.0242378
-6.94829e-09
0.634425
0.000619156
-0.00079976
3.22361e-06
0.000167437
-5.01935e-06
-0.000137652
0.0262922
6.06223e-05
-0.00833793
0.000260129
0
-3.14483e-09
0.0381486
0.0100155
5.5293e-05
0.797255
0.226033
-2.05222e-08
2.56164e-08
9.97459e-08
4.99551e-07
-1.42723e-05
0.0217875
0.000392489
-3.83839e-08
2.1694e-06
1.59528e-08
0.000566403
0.00398135
1.75385e-06
-0.000155298
-0.00541586
-2.23436e-08
0.68083
0.000783763
4.6287e-06
-5.11804e-06
0.000540801
1.42508e-06
2.19052e-07
-0.000115949
-1.07407e-06
-8.5827e-06
-2.58816e-06
-0.000508245
3.01846e-07
1.01009
-0.00689699
1.42367e-09
-2.53063e-07
7.09721e-07
-0.0340145
0.57595
2.70463e-06
0.881747
0
1.06005
-3.32322e-06
0.99311
-9.61566e-09
0
0.00337139
0.738375
1.76298
-0.0272645
2.89616
-1.24289e-07
3.31723
3.35523
1.14228
-1.37116e-07
0.0728784
-0.00044946
2.1306
-0.0282914
1.55591e-07
4.71904e-05
0
1.89648
0.3414
0.0383439
0.174236
1.07859
0
-0.00101838
2.24719
-0.00104851
8.42071e-07
-1.28871e-05
3.18076
-2.88412e-07
1.9157
0.120753
0.127917
-4.78154e-09
1.28092e-08
9.79869e-07
0.072397
2.25794
3.88843e-07
4.06732e-07
-0.00246931
-3.35385e-09
3.08027
1.52921e-09
0.106235
2.4079
-0.00018958
0.927081
-0.0198953
3.43879
2.70406
0.836257
2.37339
-0.00140831
0.00153536
-3.9943e-07
1.23013
1.1048e-07
0.981707
-6.38698e-08
1.47613e-07
0.0154902
2.88542
-0.000134575
9.16426e-05
1.15789
0
0.0130582
0.516014
1.52103
-0.00209886
1.26148e-05
0.171017
3.80557e-05
0.963464
0
-7.48902e-07
-4.95862e-06
-0.00112269
0
2.42903e-05
0.521834
7.66353e-06
0.354914
0
2.12392
-3.00845e-06
1.20197e-05
1.03824e-05
0.576192
3.11373
8.59472e-06
-7.77505e-06
-8.16017e-06
0.00441125
2.79302
-3.04993e-06
2.45577
9.95789e-06
0.00511231
3.32644
4.6702e-07
-1.36504e-05
0.00462724
2.66676
2.81604
-0.00288284
-3.09076e-07
-3.17288e-07
5.87344e-06
0.00395637
-3.50119e-06
-0.0638676
2.71676
1.12128
-2.66907e-07
0.660865
-1.13537e-05
0.000339549
0.000128432
-0.000162849
1.68022
3.0622
-3.13232e-05
0.0272749
-8.60255e-07
3.03451
-2.08048e-06
2.30685e-06
3.214
5.65344e-05
0.00893867
7.63606e-07
-2.50401e-06
-3.35672e-07
2.57568
-0.000542502
-0.000497562
2.29176
-1.11831e-05
0.000318126
0.000114585
0.179264
-1.38646e-07
0.000546899
1.05115e-05
-1.96541e-05
0.00275336
0.426295
-0.0234394
8.04322e-06
-1.14659e-06
1.17453
0.000241485
-8.20131e-08
-0.0484069
3.11947
1.00104e-07
-3.32875e-08
0.000932301
-3.21461e-08
-3.00616e-10
1.46985e-06
0.395019
-0.000126403
0.00321158
0.455878
1.07093
0.0692214
0.971013
-0.000335398
3.12783
2.28465
0.000332403
4.34655e-05
0
-4.07335e-07
-0.00190411
2.77897e-07
1.55311e-05
0.0284818
6.00243e-07
-0.0292628
-2.09391e-07
-6.65397e-05
0.0821626
-1.41781e-08
-0.000617398
-8.39008e-10
2.15043
3.15852
0
1.93901
1.61679e-05
0.0365366
0
-6.20439e-05
2.1713e-05
0.582448
0
0.000362521
-2.71669e-05
2.46648
3.01617
1.66508e-07
2.92465
2.59641
-4.71288e-05
-4.89507e-09
1.0157
0.116862
-5.14189e-07
0
0.00178727
0.00275963
1.4108
1.76281e-08
-0.0346819
2.0656
-8.29237e-07
0
1.14075
0
1.25311
0
0.0324513
-2.25002e-07
-5.74804e-05
-1.12102e-07
-0.0280056
4.79388e-07
3.30429
-0.0001959
0.00115855
-6.74822e-08
2.94034
1.84343
0.000112268
-5.47778e-08
2.1457
-1.31845e-05
-8.29883e-07
0
0.0214799
-3.51043e-06
2.85015
3.031
-7.51886e-05
-6.9114e-07
0
0.476618
-5.88108e-05
0.0184098
2.56709
-0.00840372
2.80371
2.71225e-07
-0.00660377
2.99971
3.47552
0.00395467
2.84721
0
0.282862
1.33941
2.84228
0.403526
-0.00872805
2.30368e-05
-5.56683e-05
0.789744
0.00152636
1.05137
-0.000505523
2.77578
-0.00251584
-0.00171315
-0.000399768
1.35416
-0.00170355
3.1095
2.88818
2.88142e-06
3.31888
-1.8959e-05
4.44752e-05
1.11303
1.97789e-05
3.25151
3.59087e-05
1.48569
3.24593
0.591928
-0.00242109
-2.80241e-05
5.07004e-05
0.669555
-3.788e-05
0.292694
1.65052
-0.00171839
-0.00173268
-9.04522e-05
-0.000286874
0
3.33088
0.70108
0.000566716
7.11811e-05
0.000285718
1.78305
1.58157
-5.7873e-06
0.0425274
6.17098e-08
1.87357
2.37369
0.0320452
4.30971e-05
1.81924
-0.0670465
-1.47751e-06
4.7141e-07
1.29223e-06
2.40797e-07
-0.0290925
2.12951
-5.57396e-05
-0.0175827
1.5668
-1.90866e-05
7.41998e-05
0.000302781
0.0266697
8.98536e-05
1.56939
0.0974734
7.59178e-06
-5.79228e-05
1.65811e-06
-5.69974e-05
-0.0015398
9.13009e-08
1.38884
5.98606e-08
2.00824
-0.00166029
3.82
2.40941
-0.0454669
-6.9805e-08
0.00955242
6.19642e-08
-6.11574e-10
-1.23531e-09
0.0529976
-7.05565e-09
2.5057
-8.71016e-06
5.37844e-05
0.00598621
0.0821718
5.2922e-07
8.02217e-09
0.682539
0
2.90077
-0.0001793
0.00250149
1.39924
0.00262234
8.90427e-07
-0.00366381
2.40973e-07
3.38926
2.88048
1.95666e-06
2.09387
-0.0414501
0.00055614
2.59946
0.000372207
0.000288317
2.26813
0.000414849
0.000251027
-0.000238373
0.718069
-0.00182541
-1.50408e-05
0.000794122
0.525401
-9.59428e-05
2.14254
-0.00156891
2.79093
-0.0409866
2.39858e-06
3.33238
0.0499627
-3.73698e-08
7.69777e-07
-0.022679
2.59257
-5.43454e-07
0.775486
7.70342e-06
3.07713
0.000616903
0.0860197
0
0.00215079
-1.22587e-08
1.05323
-0.000118204
0.000151308
0.40701
3.38395
0.000882806
-0.00212177
1.54975
2.34156
-0.000183982
-5.39129e-06
0.000327204
-4.49269e-06
2.4126
0.00735828
2.50481
0.0111058
5.78078e-08
-1.08438e-05
0.00490073
6.23127e-06
0.00582558
3.36741
0.000543434
-5.07101e-09
0.00281164
1.1736
0.785965
-1.09276e-05
0.00178302
-0.000572446
7.97018e-05
-2.65095e-06
0
-0.0568747
0
0
-1.0751e-05
0
1.33573
0.978635
-3.4023e-06
0
1.34239
0.00121841
-2.73566e-08
2.42598
1.1041
-0.000515523
2.5481
-0.0453737
-8.4905e-07
1.20303
6.58269e-05
0.240677
0.000587326
0.572089
2.3488
1.0139e-05
0.0171812
5.34857e-06
2.1631
2.04703
-0.00055032
0.774785
0
0.2416
0.106893
0.0400364
2.81884
-7.48486e-07
1.65476
-1.80371e-05
-0.00220867
-0.00013734
0.000330924
1.68624
-0.00979088
3.50534
2.05454
3.1506e-07
-0.00171547
0.000196957
3.65658
-0.0123091
-7.99761e-07
3.55944
-4.27536e-06
-7.95163e-07
3.16127
1.1659
-1.37003e-05
-0.043153
2.65902
-5.26292e-07
1.09562
5.74322e-07
0
9.53276e-07
-0.0050391
-7.25837e-08
1.21441
0.00175565
2.85899e-07
3.19264
0.869329
2.38169
-0.0662672
-3.5707e-07
5.46597e-05
3.33423
0.00309328
-0.00208263
-3.90994e-08
1.11062
-0.000147454
0.639953
1.61894
0.00202866
3.18271e-07
3.18826
2.70858e-07
0.0118439
0.813234
-3.34066e-06
-5.3242e-05
2.69734
2.44072
0.0105094
8.15161e-06
-0.000482062
6.96435e-06
-1.13557e-06
3.29951
0.0102544
1.2046
0
6.11299e-06
0.000665336
-0.0527942
-2.84327e-05
-0.000674095
2.91873
1.06257
0.00226627
-0.000384512
0.477425
-0.000643674
-0.00134591
3.75944
2.73265
8.1017e-07
0.00034954
-0.00142472
-0.00214824
2.45407
0.000355629
0.394885
-4.79426e-06
0.000881773
5.1528e-08
2.66496
1.12138e-05
3.20696
-3.17342e-06
-3.28191e-07
0.0709865
1.40215e-05
0.878362
3.37071
-0.0261203
2.89744e-07
2.62889
2.3335
1.70548e-08
-0.0633173
-1.14523e-08
-2.96135e-08
0.00750835
-0.000169279
0.00027795
3.26758
-0.141732
2.24469e-07
-0.01557
0
0
2.76403
2.04161e-05
1.20426
3.40909
0.00256671
1.37926e-08
0.0127729
-1.99929e-08
0.276722
1.13317
1.50131e-09
7.39781e-06
-5.37382e-05
-0.00547028
-6.37983e-05
3.32786e-06
2.88135e-08
0.148504
2.01945e-06
2.07254
-0.000639612
1.24811
-5.65304e-08
9.03004e-07
0.000146347
0.917854
0
-0.000101969
-8.18018e-08
2.03191
-7.46922e-05
2.36962
3.03553
1.17595e-06
-4.36315e-10
2.65573e-08
1.80931
-3.36711e-05
3.45004
-0.00147651
2.45195e-07
2.3928
7.75066e-05
0.420316
2.32787
1.20009e-06
1.04043
1.03952e-05
0.000806357
1.6811
0.683061
-1.14061e-05
0.000235071
-6.08523e-09
2.37273
0.00568318
3.36565
0.00292008
1.41136e-09
-0.000401705
4.13173e-08
-6.13303e-07
-0.0331276
0
-2.91573e-06
-4.85952e-06
-9.80088e-07
-0.00684142
0.00183211
0.677438
-4.20122e-07
1.43686
-0.00172303
0.000166111
1.08132
0
1.24895
-0.00100729
3.57206
2.51975
0.34752
-4.03914e-06
1.54313
0.640583
-3.92812e-06
0.824751
0
6.31201e-05
2.64374e-05
-1.26454e-07
1.82625
0.0172247
-0.000313072
0.699616
2.97571
0.00813024
-0.00163253
-0.000446657
1.64863
-0.000239036
3.03829
8.0786e-06
3.14461
4.27823e-05
1.68053e-06
-4.58109e-08
-0.000237894
0.097348
3.37086
1.46428
0.124171
0.758449
6.47149e-06
-7.96795e-06
0.17508
0.0276761
-0.0422769
2.58459
1.15679e-05
0.78765
0.933583
0.00132193
0.0516856
0
-1.60553e-05
3.59113
1.78066
0.307221
0.000313697
3.51295
5.09872e-05
2.79125e-07
2.96222
3.05922
0.00395332
0.00275863
1.88911
-2.20503e-08
3.95874e-05
9.66466e-07
-0.0535553
-2.74275e-06
7.60744e-08
-0.00611661
0.00332322
2.73299
-0.0963477
1.66892e-07
0.701205
3.70152
8.5655e-05
0.00021629
3.02401
3.26148e-05
3.27761
0.0137481
0.767213
2.92299
2.78181
-0.000997154
2.64096
5.29158e-07
-2.02272e-05
6.2927e-06
0.673698
2.35463
-0.00142039
0.797229
0.000605313
0
1.4176
-7.36728e-05
-0.0424568
-6.72525e-07
0.00152468
3.46892
2.88092
0.242601
2.06447e-07
0.000228217
-1.07773e-07
-0.046177
1.66853e-05
9.45704e-07
5.20082e-07
-2.29952e-06
1.31081e-08
0.0444089
1.39356
0.987035
0.441136
-4.19467e-07
-0.0217518
0.564318
0
2.84497
8.70759e-06
3.05623
-0.017707
1.08373
-4.18098e-06
0
2.1735e-05
1.88369
0.744313
0.000488045
0.662935
0
0.111252
1.59234e-08
3.40298
2.79256e-06
0.743348
-0.00024402
3.01647
2.38457
-1.68148e-08
6.77452e-08
-0.000372431
1.70091e-07
0.0404028
0.0185067
0.143012
-5.90143e-08
1.29278
0
3.15868
1.99318
0.000117096
-0.027998
-6.57664e-08
-0.00368718
-2.43067e-06
0.00641465
-2.84055e-06
0.325459
3.17681
0.0410993
0.186895
1.16447
2.20365e-05
0.0159112
6.2261e-09
3.31955
-2.56041e-06
3.31831
1.92374
1.56542
-3.15615e-06
1.40315
0.00362752
1.05984e-05
-1.37719e-07
1.5282
-5.53146e-05
2.86749
0.754871
3.97963e-08
-0.0422925
1.47376
6.99534e-06
-0.000349462
-0.000206371
3.32008
-9.62934e-07
-4.7378e-07
0.00679619
3.66828
1.97491
-0.00108476
3.26441e-05
0.00228763
0.661772
0
6.16885e-06
-0.000242006
2.54965
0.000115669
0.00145495
-0.0137575
0
1.94524
-1.28315e-05
1.27477
-0.000168824
0.00012729
-0.00233588
2.1107
0.000708167
-0.00168221
0.973862
2.91016
0.0123656
0.00773386
-2.30019e-07
1.39269
-0.0258725
-8.09616e-06
-6.86431e-07
3.35176
-6.65615e-07
5.91107e-06
2.62458e-07
-0.016208
0.993577
2.8109
-8.2717e-08
-0.00669138
-4.76015e-07
-0.0172346
4.26795e-05
2.70552
2.86695
0.00371541
3.60348
3.13894
-0.0501747
3.45106
2.53171
-2.42385e-07
4.80339e-05
1.51119
2.75292
-2.15361e-10
0.934225
-8.19504e-06
2.21815e-07
0.0212019
2.39849
-1.86557e-07
1.35628e-07
0.00699253
3.23002
1.15596
2.60496
2.05681
1.70944e-05
1.13476
0.000199773
-1.70858e-08
0.00112996
0.000120856
2.74881
0
3.25878
1.67344
3.26766e-05
0.00140006
0.580192
0
-2.81238e-06
1.94547
2.78875
0.00626339
0.000398583
2.49041
3.35774
-0.000920397
2.01948e-09
2.75418
0.000149813
-0.00530161
1.6176
7.39997e-05
-1.87238e-09
2.33414
0.0421929
0.00625423
2.71343
-1.45777e-06
4.14776e-06
2.43156e-08
-9.26746e-07
3.26777
2.72104
0.00189951
-5.47206e-06
-1.55948e-07
2.14727e-06
-2.49128e-05
2.47531
-7.71031e-07
0.00347058
2.91936
0.00171852
1.01108
0
-3.63952e-06
0
-2.04383e-09