# vtk DataFile Version 2.0
Unstructured Grid by M++
ASCII
DATASET UNSTRUCTURED_GRID
POINTS 4072 float
  0.546875   0.656250 0
  0.546875   0.578125 0
  0.718750   0.625000 0
  0.656250   0.875000 0
  0.734375   0.609375 0
  0.671875   0.859375 0
  0.718750   0.609375 0
  0.656250   0.859375 0
  0.734375   0.593750 0
  0.671875   0.843750 0
  0.578125   0.984375 0
  0.640625   0.734375 0
  0.546875   0.593750 0
  0.593750   0.984375 0
  0.656250   0.734375 0
  0.640625   0.984375 0
  0.703125   0.734375 0
  0.546875   0.781250 0
  0.609375   0.531250 0
  0.546875   0.796875 0
  0.968750   0.531250 0
  0.609375   0.546875 0
  0.890625   0.984375 0
  0.953125   0.734375 0
  0.578125   0.593750 0
  0.515625   0.843750 0
  0.953125   0.625000 0
  0.890625   0.875000 0
  0.781250   0.578125 0
  0.718750   0.828125 0
  0.734375   0.812500 0
  0.640625   0.968750 0
  0.703125   0.718750 0
  0.671875   0.937500 0
  0.734375   0.687500 0
  0.671875   0.953125 0
  0.734375   0.703125 0
  0.656250   0.953125 0
  0.718750   0.703125 0
  0.656250   0.968750 0
  0.718750   0.718750 0
  0.578125   0.765625 0
  0.562500   0.765625 0
  0.578125   0.750000 0
  0.921875   0.953125 0
  0.984375   0.703125 0
  0.921875   0.937500 0
  0.984375   0.687500 0
  0.562500   0.953125 0
  0.578125   0.578125 0
  0.515625   0.828125 0
  0.562500   0.578125 0
  0.656250   0.937500 0
  0.718750   0.687500 0
  0.640625   0.937500 0
  0.703125   0.687500 0
  0.640625   0.953125 0
  0.703125   0.703125 0
  0.546875   0.765625 0
  0.609375   0.515625 0
  0.531250   0.765625 0
  0.593750   0.515625 0
  0.890625   0.937500 0
  0.953125   0.687500 0
  0.859375   0.750000 0
  0.796875   1.000000 0
  0.984375   0.734375 0
  0.921875   0.984375 0
  0.968750   0.734375 0
  0.906250   0.984375 0
  0.984375   0.718750 0
  0.921875   0.968750 0
  0.593750   0.546875 0
  0.531250   0.796875 0
  0.593750   0.531250 0
  0.531250   0.781250 0
  0.953125   0.515625 0
  0.578125   0.562500 0
  0.515625   0.812500 0
  0.578125   0.546875 0
  0.515625   0.796875 0
  0.593750   0.609375 0
  0.531250   0.859375 0
  0.578125   0.609375 0
  0.515625   0.859375 0
  0.859375   0.703125 0
  0.796875   0.953125 0
  0.828125   0.750000 0
  0.765625   1.000000 0
  0.828125   0.734375 0
  0.765625   0.984375 0
  0.921875   0.796875 0
  0.984375   0.546875 0
  0.562500   0.812500 0
  0.906250   0.796875 0
  0.921875   0.781250 0
  0.812500   0.765625 0
  0.750000   1.000000 0
  0.812500   0.750000 0
  0.859375   0.531250 0
  0.796875   0.781250 0
  0.796875   0.765625 0
  0.781250   0.781250 0
  0.875000   0.578125 0
  0.812500   0.828125 0
  0.937500   0.734375 0
  0.875000   0.984375 0
  0.765625   0.578125 0
  0.703125   0.828125 0
  0.781250   0.562500 0
  0.718750   0.812500 0
  0.750000   0.578125 0
  0.687500   0.828125 0
  0.765625   0.562500 0
  0.703125   0.812500 0
  0.625000   0.953125 0
  0.687500   0.703125 0
  0.609375   0.968750 0
  0.671875   0.718750 0
  0.609375   0.953125 0
  0.671875   0.703125 0
  0.625000   0.875000 0
  0.687500   0.625000 0
  0.609375   0.890625 0
  0.671875   0.640625 0
  0.625000   0.890625 0
  0.687500   0.640625 0
  0.609375   0.906250 0
  0.671875   0.656250 0
  0.937500   0.578125 0
  0.875000   0.828125 0
  0.921875   0.593750 0
  0.859375   0.843750 0
  0.921875   0.578125 0
  0.859375   0.828125 0
  0.937500   0.640625 0
  0.875000   0.890625 0
  0.562500   0.703125 0
  0.546875   0.718750 0
  0.546875   0.703125 0
  0.531250   0.718750 0
  0.906250   0.968750 0
  0.968750   0.718750 0
  0.906250   0.953125 0
  0.968750   0.703125 0
  0.906250   0.937500 0
  0.968750   0.687500 0
  0.890625   0.968750 0
  0.953125   0.718750 0
  0.890625   0.953125 0
  0.953125   0.703125 0
  0.593750   0.765625 0
  0.609375   0.750000 0
  0.593750   0.750000 0
  0.937500   0.953125 0
  0.843750   0.921875 0
  0.906250   0.671875 0
  0.828125   0.937500 0
  0.890625   0.687500 0
  0.546875   0.750000 0
  0.546875   0.734375 0
  0.531250   0.750000 0
  0.953125   0.671875 0
  0.890625   0.921875 0
  0.531250   0.671875 0
  0.515625   0.687500 0
  0.875000   0.921875 0
  0.937500   0.671875 0
  0.515625   0.937500 0
  0.859375   0.937500 0
  0.921875   0.687500 0
  0.859375   0.921875 0
  0.921875   0.671875 0
  0.843750   0.937500 0
  0.906250   0.687500 0
  0.921875   0.703125 0
  0.859375   0.953125 0
  0.937500   0.703125 0
  0.875000   0.953125 0
  0.937500   0.687500 0
  0.875000   0.937500 0
  0.828125   0.656250 0
  0.968750   0.593750 0
  0.968750   0.578125 0
  0.906250   0.812500 0
  0.953125   0.593750 0
  0.953125   0.578125 0
  0.875000   0.843750 0
  0.937500   0.593750 0
  0.953125   0.656250 0
  0.531250   0.921875 0
  0.890625   0.906250 0
  0.953125   0.640625 0
  0.890625   0.890625 0
  0.937500   0.656250 0
  0.875000   0.906250 0
  0.718750   0.593750 0
  0.656250   0.843750 0
  0.734375   0.578125 0
  0.671875   0.828125 0
  0.718750   0.578125 0
  0.656250   0.828125 0
  0.734375   0.562500 0
  0.671875   0.812500 0
  0.578125   0.890625 0
  0.640625   0.640625 0
  0.593750   0.890625 0
  0.656250   0.640625 0
  0.578125   0.906250 0
  0.640625   0.656250 0
  0.578125   0.953125 0
  0.640625   0.703125 0
  0.593750   0.953125 0
  0.656250   0.703125 0
  0.578125   0.968750 0
  1.000000   0.703125 0
  0.640625   0.718750 0
  0.593750   0.968750 0
  0.656250   0.718750 0
  0.734375   0.515625 0
  0.671875   0.765625 0
  0.968750   0.765625 0
  0.984375   0.750000 0
  0.843750   0.750000 0
  0.781250   1.000000 0
  0.859375   0.734375 0
  0.796875   0.984375 0
  0.843750   0.734375 0
  0.781250   0.984375 0
  0.859375   0.718750 0
  0.796875   0.968750 0
  0.843750   0.718750 0
  0.781250   0.968750 0
  0.828125   0.640625 0
  0.765625   0.875000 0
  0.828125   0.625000 0
  0.875000   0.546875 0
  0.812500   0.796875 0
  0.812500   0.781250 0
  0.796875   0.796875 0
  0.875000   0.609375 0
  0.812500   0.859375 0
  0.968750   0.796875 0
  0.546875   0.687500 0
  0.546875   0.671875 0
  0.531250   0.687500 0
  0.984375   0.796875 0
  1.000000   0.796875 0
  0.562500   0.796875 0
  0.578125   0.781250 0
  0.625000   0.531250 0
  0.562500   0.781250 0
  0.578125   0.640625 0
  0.515625   0.890625 0
  0.562500   0.640625 0
  0.578125   0.625000 0
  0.515625   0.875000 0
  0.875000   0.703125 0
  0.812500   0.953125 0
  0.750000   0.609375 0
  0.687500   0.859375 0
  0.765625   0.593750 0
  0.703125   0.843750 0
  0.750000   0.593750 0
  0.687500   0.843750 0
  0.625000   0.984375 0
  0.687500   0.734375 0
  0.625000   0.968750 0
  0.687500   0.718750 0
  0.609375   1.000000 0
  0.671875   0.750000 0
  0.609375   0.984375 0
  0.671875   0.734375 0
  0.625000   0.906250 0
  0.687500   0.656250 0
  0.609375   0.921875 0
  0.671875   0.671875 0
  0.625000   0.921875 0
  0.687500   0.671875 0
  0.609375   0.937500 0
  0.671875   0.687500 0
  0.625000   0.937500 0
  0.687500   0.687500 0
  0.968750   0.656250 0
  0.906250   0.906250 0
  0.984375   0.640625 0
  0.921875   0.890625 0
  0.968750   0.640625 0
  0.906250   0.890625 0
  0.984375   0.625000 0
  0.921875   0.875000 0
  0.968750   0.625000 0
  0.906250   0.875000 0
  0.953125   0.765625 0
  0.906250   1.000000 0
  0.968750   0.750000 0
  0.937500   0.765625 0
  0.953125   0.750000 0
  0.953125   0.796875 0
  0.937500   0.796875 0
  0.953125   0.781250 0
  1.000000   0.531250 0
  0.937500   0.781250 0
  0.984375   1.000000 0
  1.000000   1.000000 0
  1.000000   0.984375 0
  0.890625   0.765625 0
  0.718750   0.515625 0
  0.656250   0.765625 0
  0.890625   0.796875 0
  0.890625   0.781250 0
  0.562500   0.671875 0
  0.921875   0.656250 0
  0.578125   0.656250 0
  0.515625   0.906250 0
  0.562500   0.656250 0
  0.890625   0.750000 0
  0.828125   1.000000 0
  0.875000   0.734375 0
  0.812500   0.984375 0
  0.546875   0.968750 0
  0.625000   0.718750 0
  0.171875   0.656250 0
  0.750000   0.046875 0
  0.062500   0.609375 0
  0.046875   0.609375 0
  0.734375   0.031250 0
  0.046875   0.593750 0
  0.718750   0.125000 0
  0.703125   0.109375 0
  0.687500   0.125000 0
  0.500000   0.937500 0
  0.437500   0.765625 0
  0.359375   0.625000 0
  0.296875   0.875000 0
  0.343750   0.609375 0
  0.281250   0.859375 0
  0.250000   0.515625 0
  0.484375   0.531250 0
  0.468750   0.515625 0
  0.468750   0.656250 0
  0.453125   0.671875 0
  0.031250   0.937500 0
  0.390625   0.921875 0
  0.250000   0.968750 0
  0.765625   0.234375 0
  0.750000   0.093750 0
  0.750000   0.078125 0
  0.000000   0.515625 0
  0.500000   0.765625 0
  0.328125   0.718750 0
  0.343750   0.703125 0
  0.328125   0.687500 0
  0.312500   0.703125 0
  0.343750   0.781250 0
  0.406250   0.531250 0
  0.015625   0.531250 0
  0.062500   0.593750 0
  0.750000   0.015625 0
  0.062500   0.578125 0
  0.046875   0.578125 0
  0.734375   0.000000 0
  0.296875   0.687500 0
  0.484375   0.843750 0
  0.031250   0.593750 0
  0.718750   0.015625 0
  0.031250   0.578125 0
  0.468750   0.828125 0
  0.703125   0.000000 0
  0.750000   0.234375 0
  0.453125   0.750000 0
  0.218750   0.687500 0
  0.421875   1.000000 0
  0.000000   0.218750 0
  0.484375   0.750000 0
  0.468750   0.765625 0
  0.468750   0.875000 0
  0.046875   0.093750 0
  0.296875   0.781250 0
  0.437500   0.984375 0
  0.015625   0.203125 0
  0.500000   0.796875 0
  0.078125   0.015625 0
  0.484375   0.875000 0
  0.484375   1.000000 0
  0.062500   0.218750 0
  0.468750   0.859375 0
  0.484375   0.781250 0
  0.062500   0.000000 0
  0.484375   0.921875 0
  0.062500   0.140625 0
  0.453125   1.000000 0
  0.031250   0.218750 0
  0.312500   0.562500 0
  0.250000   0.812500 0
  0.468750   0.937500 0
  0.046875   0.156250 0
  0.343750   0.593750 0
  0.375000   0.562500 0
  0.312500   0.812500 0
  0.203125   0.671875 0
  1.000000   0.234375 0
  0.375000   0.593750 0
  0.312500   0.796875 0
  0.484375   0.890625 0
  0.062500   0.109375 0
  0.296875   0.796875 0
  0.187500   0.656250 0
  0.984375   0.218750 0
  0.359375   0.546875 0
  0.375000   0.625000 0
  0.359375   0.609375 0
[...]
POINT_DATA 4072
SCALARS scalar_value float 1
LOOKUP_TABLE default
0.232509
0.968104
0.21865
3.99486e-06
0.0906658
-2.39313e-06
0.306838
6.33194e-06
0.125498
5.67103e-05
7.66649e-06
-0.00926935
0.788476
-4.33775e-06
0.0398222
6.27938e-07
0.0144598
0.0150037
1.29258
-0.00591522
9.03472e-08
1.17854
-6.63383e-10
-2.60092e-08
1.67729
0.00202004
2.15418e-08
3.27842e-10
0.00149643
-2.23375e-05
-0.000110353
-2.18164e-07
0.0281515
-1.99889e-08
0.0114523
2.13504e-07
0.00640334
-4.88278e-07
0.024435
7.69949e-08
0.0130401
-0.0230549
0.0226883
0.309414
-2.77943e-10
-5.76587e-09
0
-7.08259e-09
-2.81664e-05
1.84472
-0.00200254
1.10994
1.43878e-07
0.0417855
-5.07296e-07
0.0812657
1.0232e-06
0.0491313
-0.0336193
1.43266
0.0020734
1.97388
1.951e-10
-3.14665e-08
-3.14058e-07
0
-3.6395e-09
-2.56178e-10
1.12271e-08
4.25256e-10
-4.83341e-09
1.41737e-10
1.91144
-0.00512572
1.9376
0.019801
-3.64414e-07
1.93638
0.00426492
1.97724
-0.00456369
2.12286
-0.00169238
1.41267
-0.00128327
3.57356e-07
-1.03977e-08
-2.67158e-06
0
-8.35388e-07
1.81583e-08
1.84153e-07
-2.38731e-08
0.0126008
-1.82752e-07
-2.05884e-07
-7.75181e-06
0
8.02327e-06
1.9928e-05
-3.48433e-05
1.08991e-05
2.2305e-05
-1.21796e-06
-5.02599e-06
4.83132e-08
9.61404e-10
-0.00812777
2.71848e-05
0.00261762
0.00016854
-0.00542241
5.86691e-05
-0.0117998
-0.000107681
-2.09688e-06
0.0640714
-1.21078e-06
0.0446926
4.12245e-06
0.0723712
1.77666e-06
0.489302
1.82553e-06
0.348391
-3.01414e-06
0.346142
-4.15329e-06
0.244921
-1.46782e-07
-2.23133e-07
4.3137e-07
-6.81879e-08
2.84984e-07
1.27142e-07
4.77471e-08
-1.26457e-09
0.421366
0.0786023
0.135654
0.0168862
-3.09718e-10
1.33001e-08
5.65792e-10
1.57042e-08
0
1.56155e-08
6.46348e-10
-2.90245e-08
-1.14896e-09
-3.01084e-08
-0.085806
0.582616
0.390266
1.34904e-10
-7.46812e-09
2.6767e-07
3.20099e-08
-4.7911e-07
0.0110786
0.04587
0.000789983
-2.86609e-08
0
0.125487
0.105109
-4.69413e-10
4.31486e-08
-0.000207214
3.48613e-09
-8.46302e-08
2.17547e-09
-7.10168e-08
-1.08453e-08
2.43778e-07
-8.46836e-08
-4.68105e-09
4.97605e-08
2.34255e-09
4.92886e-08
-1.03282e-09
4.91291e-06
1.76925e-09
-2.47868e-08
-3.00897e-07
3.14786e-08
6.75459e-08
7.89346e-08
-1.23978e-07
-2.37035e-08
-0.00014942
0
-3.74641e-08
7.9164e-10
4.15915e-08
-8.29278e-10
0.432168
-1.81082e-05
0.183385
2.29746e-05
0.575231
0.00026104
0.231066
0.000181105
1.71621e-05
0.277723
-1.41347e-05
0.430066
-1.80466e-05
0.16669
1.51742e-05
0.0558523
-7.98671e-06
0.0782481
-5.38727e-06
2.97757e-09
0.0221817
2.61461e-06
0.0523971
0.34181
0.0156542
3.73392e-09
-2.27618e-09
7.06835e-07
0
1.62508e-08
-8.08939e-10
-1.68672e-07
3.01536e-09
2.8862e-07
3.70928e-09
-8.80218e-07
-2.33492e-08
1.19896e-05
-1.29471e-05
1.03332e-05
-1.05176e-05
-1.23881e-05
1.56066e-05
2.56939e-05
2.77608e-07
-2.18208e-07
-1.27237e-09
0.162548
0.176172
0.0750146
3.82071e-10
-2.75731e-10
-0.0160231
0.0555718
2.13437
0.0214332
0.884671
3.48293e-05
0.466258
1.14409
0.000498835
4.5068e-07
2.45486e-08
-0.00212451
7.60331e-06
-0.00729197
1.60613e-05
-0.00132836
-1.63234e-05
-1.24614e-06
0.0218726
5.29389e-07
0.0377412
0
0.0035418
2.36674e-06
0.0234831
5.68774e-07
0.237853
5.82653e-06
0.168172
-2.92881e-06
0.158618
-2.96933e-06
0.114306
1.25977e-06
0.101968
1.17796e-08
0
-1.25803e-08
0
2.68275e-08
3.94059e-10
-4.04444e-10
-2.21438e-10
-6.07433e-09
-1.70405e-09
-1.08335e-08
0
7.74804e-09
2.27612e-08
-2.05753e-08
5.71235e-09
-4.42103e-08
-1.06862e-08
9.02259e-09
3.96071e-08
0
0
0
-4.90515e-07
1.1485
-0.00843666
7.12241e-07
-1.68618e-06
0.366803
-8.26167e-08
0.682726
-0.000203313
0.393115
-7.21777e-07
0
5.15986e-07
7.53986e-10
-2.03749e-05
0.436468
-0.000576573
-0.0128636
5.10527e-08
4.86421e-08
-0.03016
-3.8307e-07
0.197148
0.155717
-0.0782343
0.000413259
0.117506
0.40988
-4.34005e-05
0.73829
-0.000138381
-0.0225585
1.52118
1.79997
0.252108
0.11708
0
7.45292e-06
-6.87899e-09
0.0293335
-0.0231209
-0.0208618
8.56752e-08
0.00753771
0.0336992
0.0903094
0.0981217
0.0536468
0.0030867
2.64594
1.62953e-07
5.09846e-07
-0.00482813
-1.9684e-06
1.01817e-06
-0.0300063
0.068582
0.000455002
2.43483e-07
0.0538414
-4.86911e-07
-0.0016795
0.0554712
-0.0359612
0.0200336
8.13183e-05
0
3.28904e-06
0.0137212
-0.00549732
0.00228675
7.70228e-06
0.00104995
-1.58799e-06
-4.22212e-06
0.000255588
-8.82593e-06
0.001371
0
6.76097e-05
-0.00310429
0.00639273
4.25514e-06
-0.00067122
-8.31562e-05
0
-3.28334e-07
0.556049
0.000168095
0.000345058
1.96332e-06
0.881343
1.41384
0.00201056
0.000632886
-6.66599e-07
1.04139
0.000649842
-0.000945109
-1.86642e-05
0.000257257
0.00103192
5.69119e-07
1.26212
0.688672
0.544266
0.851372
0.000968167
9.13462e-06
1.71133e-05
-0.000784686
0.00151206
6.82851e-06
0.000454052
1.19819
-1.24875e-09
1.44309
0.00022295
0.000762958
-3.25376e-07
0.000263872
0.66658
0.00502528
-2.86964e-06
6.22696e-07
0.00013217
0.000978253
1.65686
1.94601e-05
-1.75292e-05
1.67327e-07
1.6447
0.000127647
0.000184822
-1.88478e-08
4.19608e-07
0.0955594
8.82654e-08
0.000899719
-7.91135e-05
0.114046
0.0273071
-0.0712469
-0.00136474
-0.002647
1.70147e-06
0.0100393
-0.022003
0.00580948
1.85806
0.00210286
-0.000118051
-4.4334e-07
0.0023152
0.00126918
5.17493e-07
1.69706
0.16842
0.0573992
-0.0172501
0.123631
-0.0216825
6.76601e-07
-2.55126e-07
-1.42925e-06
-0.000522463
0.000278531
0.00473352
0.00955151
-2.63656e-08
-1.72944e-05
-7.94361e-05
-3.69116e-05
-4.23053e-06
5.92362e-07
7.35809e-05
-6.70344e-07
9.87525e-05
-3.8085e-07
0.0001708
-2.0879e-07
0.000754218
0.00847341
0
0.063285
0.0063934
0
2.22704e-07
0.386554
1.70839e-06
0
-2.75832e-05
-3.58794e-06
-0.00688393
0
0
-0.0126381
0
0
1.04336e-05
4.91977e-06
-9.03647e-06
-2.94382e-05
0.102083
1.31322e-05
6.957e-06
-0.00887062
0.593178
-4.19058e-05
0
0.0295291
-0.00646974
-0.000288875
0
0.112088
1.60086e-07
0.253977
0.00167079
3.41472e-08
0.343233
0.186925
-8.99367e-05
-0.000288344
4.92177e-05
1.95707e-05
-0.0217937
5.28922e-06
-1.00726e-06
0.491436
0.0203822
7.8772e-07
0
0
2.24537e-08
2.3056e-08
1.10535
0.00690489
0
0.175122
1.01429
0.0114631
1.69238
2.50764
0.0103004
2.70501
-0.0165246
0.121305
1.34221
0.017668
1.21061
1.45975
1.43194
5.08206e-09
0.143859
1.79015
1.63212
-4.70482e-09
-0.0451588
0.0457027
0.470328
0.0226329
-0.00723114
1.90581
2.51214e-09
0.164962
1.19629
-1.06518e-08
-0.000433861
8.9586e-07
0.428024
1.12129e-05
0.311391
0.489352
-0.001975
-6.5541e-08
-0.026925
-7.30186e-05
-1.23535e-06
-0.0172425
0.339372
0.821076
0.980797
-0.0190057
3.13235e-06
0.0123881
0.0997815
-2.86782e-06
0.506471
3.26056e-10
0.726709
0.263216
1.56274e-10
0.00843773
0.000149977
1.38821e-05
0.0764641
0.243371
0.332474
0.000164885
1.14703
1.16164
-1.35372e-07
-0.000172312
0.508086
0.00412689
0.23467
0.0159365
1.39828
-2.23896e-05
-0.00463336
9.07912e-06
-0.00058679
-0.0132181
0.00355616
0.809215
-1.70458e-05
-0.00052886
0.0254326
0.306664
0.109717
0.0733168
0.840128
0.236914
-1.3677e-05
0.241842
9.53842e-06
0.369578
0.614235
-0.000786802
-1.40183e-07
-0.0799284
1.81842
1.86281e-06
-0.00011108
-0.000116766
-3.11735e-06
-0.000689985
-4.13437e-08
0.00626375
-2.52904e-07
0.000314377
0.267019
0.821946
-0.0369229
-2.76305e-05
4.77127e-06
-0.0678694
-3.27812e-05
0.000289868
-5.62249e-07
0.000107046
1.12585
0.0134205
1.0163
-0.00917495
3.29659e-06
0.62051
0.236411
-2.29592e-05
0.155039
-2.61733e-08
1.93769e-08
0.0111381
0.349556
1.10452e-10
0.230613
0
0.148842
1.15895
0.531893
0.214896
0.570379
-6.94136e-10
-7.40972e-05
8.51837e-06
0.109152
-1.51472e-07
0.00234408
0.580776
4.97639e-10
0.0119788
0
-0.00262475
-0.00686271
0.0116166
0.00870559
0.001134
0
1.8837
0.000920992
-0.000294886
-0.0193068
-0.000482945
1.60396
0.00186457
0.00460294
-0.000457721
0.00578128
0.000962844
-1.21383e-05
2.14835
1.20961e-09
0.0502565
-0.00498873
-5.81019e-08
0.00785558
1.41641e-07
-1.67213e-06
-0.0149299
-0.00803825
4.77889e-09
1.88385
1.90559
0.000114748
-2.23644e-05
-0.00576793
-5.58374e-05
1.2758
1.2656e-05
0.0028078
-0.0645727
0.164981
-8.56989e-06
-0.0992801
-2.42878e-06
1.66551e-06
-3.01034e-06
0.142362
-9.84426e-06
-1.74024e-05
0.00052866
0.000129216
-1.3676e-05
-0.111788
0.122238
7.06844e-06
-0.108629
-9.33978e-05
0.104187
0.502964
9.1804e-09
2.09468
0.224074
1.58124
0
0.149107
1.82604
0.352869
0.224317
-7.29709e-09
-0.00213413
-3.10509e-06
1.79
-7.92879e-05
-3.02607e-05
5.18733e-06
-0.000424516
-5.04661e-05
-1.16976e-05
-0.00499005
-3.41161e-06
-4.02162e-05
2.82435e-06
-8.97654e-06
1.95465
0.000140348
0.00011942
-1.86605e-05
0.00886655
-5.96981e-05
1.02149
8.64289e-06
0.00471574
-5.82407e-05
1.06733e-05
-0.0036013
2.50977e-05
-8.29109e-06
2.47576e-05
-1.05284e-06
-0.000186698
-9.87469e-06
6.14156e-08
-3.47831e-05
2.04151
1.97451
2.95998e-06
4.52006e-07
0.00103765
6.28049e-06
-0.000413198
0.034973
0.880753
0.0305214
0.00262099
-1.09636e-05
0.925238
-0.010375
-0.336839
1.87208
0.102446
0.0990237
-1.63886e-08
0.0130159
-7.92492e-07
2.02848
0.0702595
-0.169336
-5.93467e-09
2.0159
-0.195543
0.000155667
1.79417
0.358494
-0.131295
-1.41329e-07
1.67405
3.74471e-08
-0.109268
-1.10497e-07
2.51504e-05
0.0158909
0.598822
-0.00664407
-4.76735e-07
-0.0280235
-0.0362773
3.16102e-07
0.0070118
5.46387e-07
-1.25275e-08
-0.00545875
-2.30747e-08
-0.011377
0.156754
-0.00912648
-9.07019e-08
-0.00289753
0.00647518
-2.62727e-07
-0.00371619
-0.0196191
-1.0405e-08
1.55164
0.648618
0.876428
1.91761
1.89731
3.18339e-06
-3.3669e-06
1.8164
0.177047
1.73884
0.226588
2.8496e-08
-1.26602e-05
1.97087
0.171164
-0.189867
-1.13954e-07
1.89503
-0.160455
-1.28258e-07
-0.00188145
1.54731
0.651434
-0.0953198
4.89484e-07
1.41566
1.18774e-07
-2.22526e-06
-1.39058e-06
-0.0897351
-0.000181868
-8.90749e-05
-7.47337e-05
-0.000181051
-8.40569e-05
-2.25858e-05
-2.9441e-06
7.49773e-08
2.10935e-07
0.000142802
0.000102726
-5.68452e-07
-2.88364e-05
-1.90717e-05
7.13148e-05
0.00391514
-0.00419789
-0.000502928
-0.000107524
-4.64778e-07
-0.000929729
1.04451
-0.00287552
-0.00576335
0.0054173
2.79414e-07
-0.00530514
-3.63523e-07
-4.2828e-09
-2.34135e-10
-0.0001273
-0.00770203
1.28811
0.596931
4.24815e-06
4.24016e-06
0.00526845
1.0137
0.151333
3.1036e-05
1.22822
0.0435301
-6.30951e-06
-0.00157496
1.34113
-0.000477692
0.000386849
-0.000335368
0.00112678
2.7693e-08
-0.000155505
0.00120753
-0.00255285
0
-0.00108444
1.72109
0.00879226
-0.245504
0
-4.31206e-06
1.98573
0.0148928
0.744223
1.81954
-0.194722
1.43247e-05
-3.21413e-07
-0.00818758
-1.12861e-05
3.48898e-06
5.10346e-06
-1.3722e-05
-0.00176012
7.24891e-06
5.60906e-06
0.00258722
-1.20738e-05
-0.00405701
2.35932e-06
0.517872
-0.000488876
0.00426268
4.71477e-06
-0.316941
-0.0114948
1.72838e-06
0.38829
0.00625095
7.14715e-07
3.14384e-06
0.0355804
1.03549
-0.0266164
-0.0150147
-0.029502
0.0468033
2.22987e-06
1.02865
0.000308199
8.07922e-06
0.0192987
0.00867967
0
-0.000467096
-0.0535971
0.000334113
-2.6002e-06
0.00037496
-0.0350052
-5.34987e-06
0.000251444
-0.0247021
-1.30074e-05
0.000134118
-2.62845e-06
-0.00755763
1.33182
1.69295e-06
0.120864
0.0180674
3.2385e-06
1.27728
0.785729
0.194222
-7.99803e-08
0.754276
0.615098
0.646531
0
7.00619e-07
0.00178648
-0.00162647
0.101866
0.00237006
-7.41749e-08
0.00602559
5.74181e-05
0.00603408
1.08252
0.505269
0
0.548986
0.403107
-1.27224e-09
-9.05059e-07
-6.7831e-06
2.84895e-05
6.99586e-06
-6.86362e-05
-0.00948508
-9.75682e-06
9.41146e-07
0.000156444
-5.67273e-06
2.8182e-05
0.735321
6.03277e-06
-6.37826e-05
1.71721e-06
-0.00541254
-5.73761e-05
0.0851379
-4.89261e-07
1.97283e-05
0.131236
1.52863
0.114065
0.000292361
1.56194
0.0279757
-1.45326e-06
-6.06156e-06
0.0206391
-0.000348323
-0.0238453
0.714353
0.531575
-1.0431e-06
1.3796
0.765029
0.810819
0.642186
8.50053e-08
-2.06525e-05
-0.0101046
0.0196191
-0.00297099
-0.00295394
1.8897
-0.136536
0.125687
-0.274048
0.0205024
-0.000769758
0.000109205
0.341732
0.698472
-0.00487577
0.000363645
-0.00111518
5.53227e-06
-0.000346987
0.106067
-0.275014
0.216256
-0.133986
0.000548758
-0.000729752
0
1.15587
0.130786
0.660843
-0.00103254
-3.76069e-10
0.0120896
-0.00191617
1.66231
0.642965
0.478344
3.93874e-06
-7.27521e-05
0.000863471
-0.0745741
0.000541539
-6.18006e-05
-0.000245935
0.177855
-9.52142e-08
5.22837e-07
-0.191734
0.000241857
-0.000788505
1.14563
0.536176
0.0886783
-3.86257e-06
0.882908
1.00437
9.16261e-06
-0.00201096
-0.0498415
2.49231e-05
0.00733943
-2.78474e-06
0.000266938
0.154678
-7.50182e-08
0.148571
0.452456
-7.03316e-09
0.0443765
0.0112422
-0.00134962
2.44478e-05
0.015706
0.40168
5.49872e-07
1.69086
-0.00162524
-2.62254e-05
-0.00070456
-0.00109159
-1.99177e-05
0.000126377
0.000339363
0.770046
1.58056
0.0558596
0.287099
-3.07667e-06
1.63859
-0.00712419
-0.000438592
0.542337
-0.000156261
0.000240503
-0.00715997
0.000393769
0.00895899
-0.000864553
1.54791
0.183493
-3.95154e-07
3.11364e-07
5.24555e-07
-2.24436e-06
6.70211e-05
-5.40475e-08
2.04787e-06
-2.03513e-05
0.000393303
2.5672e-06
2.59767e-06
2.90404e-06
7.95407e-07
1.99613
2.00313
-3.90293e-06
-3.28953e-06
0.000540447
-1.81945e-05
0.140788
-6.24013e-10
1.47288
-0.000324348
0
0.546963
0.43171
0
-8.85073e-08
0.0886195
-0.249705
2.04996
0.967483
4.87679e-08
-0.0038823
-3.4399e-06
6.41138e-09
0.190878
-1.50788e-05
0.0362228
2.07185e-06
2.02739
1.92374
-0.00142523
0.820909
0.793282
-0.0100208
3.2045e-06
-1.55562e-06
1.42673
0.201455
0.102989
1.69918
0.520922
0.415346
1.06156
0.109983
-4.49887e-08
0.179677
0.500663
0
1.16679
2.61896
0.0267493
2.24015e-06
-0.00631137
0.0154788
0.000163134
0.0357074
-0.0308718
0.0458828
3.05455e-05
-0.0372737
-0.0538911
0.0584226
-3.53694e-06
-1.55787e-06
0.793855
5.38333e-06
0.123447
0
3.39012e-06
-3.82915e-06
8.64118e-06
-0.0153303
1.67204
4.3706e-07
0.0036638
-0.00929503
2.98942e-09
1.77762
5.42237e-06
1.92691
0.633191
0.160235
1.69112
0.0538895
-7.52734e-06
1.40356
1.79167e-06
2.76887e-06
0.821376
0.359938
1.74599e-08
0.0618883
0.0823163
-3.24252e-08
0.975389
-0.000183701
0.0670429
1.15782
0.101368
3.99079e-10
1.31305
0.901053
0.0096003
-5.68853e-09
1.04974
-0.000386709
3.21923e-06
0.0179472
1.21115
0.030075
1.40834e-10
0.971723
-9.24755e-06
0.00364996
0.149339
0.00592616
-1.69038e-07
-0.0110632
0.088972
-0.0539205
2.70949e-08
-1.08407e-06
0.0315165
4.06196e-07
0.00225965
0.34451
-0.0085737
-1.42973e-07
-0.00913383
1.56988e-08
-0.00807576
5.16789e-06
0.0211386
0.288818
-0.0445218
2.03973e-08
-1.67608e-06
-0.0179311
0
2.27865e-06
0.0124006
6.25054e-06
0.000140569
9.86372e-05
0.852152
-3.54054e-05
0.0670106
0.0031683
0.00114758
0.391296
2.03857
3.65596e-05
1.68776e-05
6.16705e-05
9.32502e-05
8.22703e-05
-1.20086e-05
7.14712e-06
0.971707
0.000293944
-0.000342989
2.32291e-05
4.63343e-05
-5.28284e-05
6.82346e-05
2.30546e-05
-1.12297e-05
-0.000147214
3.71008e-05
2.75119e-05
1.20061
-8.59155e-06
4.0636e-05
-3.155e-05
0.00159773
0.186541
-4.88027e-08
6.49572e-05
0.0513352
4.59936e-06
-0.0491367
6.5553e-08
0.0346062
0.687493
-0.0327187
-5.14854e-06
-0.000587201
-0.0133177
0.639631
0.201583
-3.88964e-06
-0.0015662
-0.0873393
0.345347
-0.0880482
0.0315678
0.553407
2.08955e-08
0.000572893
-1.53008e-06
-0.000223179
-6.54636e-05
1.25306
-2.62712e-05
-0.000925381
0.00010567
0.0517806
4.1553e-09
-0.00797747
0.000246193
1.93328e-05
-0.000227435
0.023726
0.658691
0.19269
0.386117
2.77918e-08
-2.21896e-06
-0.072954
1.40247
2.61366e-06
0.704274
0.209585
0.0748472
-2.13775e-07
0.0849571
0
-1.82288e-05
0.278897
0.000852219
0
9.33714e-05
9.55021e-06
0.0011665
0.000681313
6.4685e-05
1.96469
-0.0449533
0.00247226
0.00323376
1.70302e-06
1.78764
0.147784
4.04716e-09
5.171e-05
-0.000259107
4.91514e-05
5.09111e-05
1.96899
0.791732
0.0033432
0.0231645
-0.000397828
0.0137557
-0.000840125
-5.50075e-07
-0.000218029
0.0198489
-3.884e-05
-0.0638261
0.424722
3.75912e-08
-0.149809
0.267068
-2.01159e-08
-3.72701e-09
4.56695e-06
-6.74152e-05
-3.75897e-05
2.14892e-05
-0.000133593
-1.3073e-05
-1.97022e-07
2.01056
0.0406037
-0.114785
0.0018727
1.59028e-09
-0.00566517
0.00066059
0.00173945
0.000698533
0.00276354
2.16413
0.00068057
-0.00374531
0.0023666
-0.00981164
0.978872
5.50714e-06
7.4117e-06
3.83108e-06
-0.00178863
0.917279
-7.51443e-06
-4.54467e-05
0.000231848
4.70327e-07
-1.86836e-08
-7.42678e-05
-0.0402169
0.029254
6.08976e-09
3.47652e-05
7.48524e-05
-0.000129164
0.00012622
4.98418e-06
-2.28624e-05
0.00213746
-7.31745e-06
0.836636
0.0305255
-0.000150958
-8.31364e-06
-0.00026393
-3.36712e-05
0.00050927
4.90034e-05
7.54904e-10
-0.000862802
0
-0.101659
1.16287
-0.058626
4.83408e-08
0.0300728
0.102327
0.0476135
1.9493e-06
0.000540179
0.0292014
0.00370022
-3.09215e-07
0.860087
0.0583805
-2.36426e-07
-0.000316712
0.0867225
2.44877e-05
0.0622038
1.82284e-08
-0.00762541
0.196355
0.000467072
0.000645063
9.29632e-06
-0.000250304
0.148834
-0.241516
0.336539
-0.0119093
5.62231e-09
0.047903
1.28357
0.00513747
-0.000559565
7.99593e-05
-1.7591e-06
0.0936126
0.89704
9.54965e-06
7.02964e-05
1.97528
5.6854e-06
1.68439e-07
1.19335e-07
0.00226448
-5.2284e-05
6.08096e-07
-6.75477e-05
-3.89342e-05
-3.63417e-05
1.57557e-05
2.10212e-05
-1.21781e-05
-0.000222842
-2.01714e-06
-0.000652306
1.30891
0.0518837
0.731723
0.695619
1.63718e-05
0.00295415
0.00237709
1.82755
0.0141251
0.00118887
-0.00383474
-0.000728588
-3.26238e-05
-0.000266532
-1.35712e-07
0.232424
6.31619e-07
-0.218201
0.0897135
-0.0298211
-0.09135
-4.23777e-10
-2.89732e-05
0.00324205
0.044602
0
1.89172
0.000159111
1.12989
0.448255
0.0138877
-0.000334639
-0.000462741
0.00225365
5.77165e-06
-0.00801281
1.30615e-06
0.2638
0.00601603
-1.84215e-06
-0.00012687
-1.43991e-05
0.000977464
3.85978e-05
1.99774
-0.0010358
0
1.09914
-0.000982655
0.0100835
-0.00579936
0.00024514
-7.01922e-05
4.04538e-05
5.77718e-06
0.0187084
-0.00112351
7.77339e-05
1.62338
2.92689e-05
-4.60739e-05
-0.00324429
-0.140494
1.54887
0.0727713
2.5598e-06
3.33044e-05
0.00348544
0.000594884
-5.58864e-06
8.50159e-06
-3.49948e-06
-3.58111e-06
-1.21365e-05
1.75894e-10
0.00154808
0.0548183
0.0639021
-1.53113e-07
-2.14428e-05
-0.0227934
0.000800874
1.89049
1.9278
-1.65981e-08
0.296613
0.115062
0.210573
-7.64578e-08
-0.28632
-0.01062
2.02714
2.21492e-06
0.046364
-3.03178e-10
-0.00176884
-0.118248
-0.033726
0.027322
0.000104931
0.00281233
-0.00204215
1.27981e-05
-4.13099e-06
-7.50152e-06
-0.00989304
0.0203922
-0.000211791
0.0212396
-0.0433477
0.0273199
-0.0166625
0.000230903
0.017648
-1.43945e-06
-0.0141748
4.99119e-05
0.00017895
-4.15735e-05
-0.000512566
-1.05626e-05
-1.55075e-10
1.91802e-05
-4.9617e-05
2.10037e-05
0.000809721
1.78146
-0.00281666
-0.000329265
3.37057e-10
-6.61014e-06
5.9534e-06
0.00129923
3.46161e-06
1.88589
0.125157
0.102919
1.08959
0.0568997
-0.21414
-0.00355779
-0.34542
-1.1671e-07
-0.161196
-0.264202
0.000155192
1.89361e-06
0.000703388
0
0.309995
-0.000834263
2.63657e-06
1.11742
-3.29215e-08
0.234314
1.13645
0
0.000673518
-4.48437e-07
-2.57961e-06
-0.000350642
3.19686e-05
-4.94937e-05
7.59958e-06
-0.342618
0.00415947
0.338793
-0.000145566
0.000115967
6.86431e-10
-0.109147
0.30506
-9.13844e-10
-0.000200859
-4.95381e-05
1.03481
0.626863
0.000152393
-5.29757e-06
0.0143173
2.93133e-06
5.68197e-05
6.66559e-06
6.24074e-05
0.000830551
0.0018218
1.55501
-0.0210596
0.000979418
0.0146374
0.00421561
0
0.77648
0.00532756
0.000372778
1.63099
-0.0664314
0.000407417
-0.000278562
1.85573
-6.07512e-08
0.000472177
0.102092
0.421048
-4.19973e-08
0.0474
0.000892412
7.83287e-06
-0.000371556
1.10113
2.93431e-05
-0.00053417
0.000249051
-0.30221
0.281566
1.46899
1.91506
2.03543
0.000376977
-0.0659446
0.867353
0.02501
1.17092
0.593883
0.850232
0.390043
-1.89807e-07
7.49525e-05
-0.000827125
-3.29228e-07
-7.7135e-10
0
-0.00323795
0.000264007
1.20294e-06
0.00399549
1.48879
0.0810382
-3.24151e-06
0.829448
0.356232
2.43639e-08
0.255928
0.000334951
-0.000609404
0.0358451
-2.02894e-06
0.022873
0.898179
1.45135
0.220888
2.39919e-06
0.194471
-0.000527376
0.00464239
0.000559266
7.77159e-05
5.68356e-06
0.000981429
-6.31032e-05
-7.27741e-07
0.063732
3.65414e-06
1.09978
0.738282
1.91616
0.000210065
0.0662027
5.88127e-06
0.755265
1.55622
0.457748
5.41935e-09
-0.0575122
1.54217
0.0107817
-3.27717e-05
0.0170322
0.209786
0
1.64816
1.22114
0.0180078
-9.47983e-05
-0.000199172
2.13563e-06
0.000444675
-8.95293e-05
-0.0973218
0.169839
1.07197
0.00334206
0.0107487
0.10002
0.0313171
-0.00275829
-1.88632e-07
0.000112902
0.000396614
-4.08795e-07
0.00430507
-0.00201211