# vtk DataFile Version 2.0
Unstructured Grid by M++
ASCII
DATASET UNSTRUCTURED_GRID
POINTS 289 float
  1.000000   0.687500 0
  1.000000   0.625000 0
  1.000000   0.562500 0
  0.812500   0.750000 0
  0.937500   0.812500 0
  0.750000   1.000000 0
  0.937500   0.687500 0
  0.937500   0.625000 0
  0.937500   0.562500 0
  0.750000   0.687500 0
  0.687500   0.625000 0
  0.875000   0.750000 0
  0.687500   0.937500 0
  0.875000   0.687500 0
  0.875000   0.625000 0
  0.875000   0.562500 0
  0.812500   1.000000 0
  0.812500   0.687500 0
  0.625000   0.875000 0
  0.812500   0.625000 0
  0.812500   0.562500 0
  0.750000   0.937500 0
  0.750000   0.875000 0
  0.750000   0.812500 0
  0.750000   0.750000 0
  0.750000   0.625000 0
  0.562500   0.812500 0
  0.750000   0.562500 0
  0.562500   0.937500 0
  0.562500   0.875000 0
  0.812500   0.937500 0
  0.812500   0.812500 0
  0.812500   0.875000 0
  0.562500   1.000000 0
  0.875000   1.000000 0
  0.562500   0.750000 0
  0.875000   0.937500 0
  0.562500   0.687500 0
  0.875000   0.812500 0
  0.562500   0.562500 0
  0.875000   0.875000 0
  0.562500   0.625000 0
  0.625000   0.937500 0
  0.625000   1.000000 0
  0.687500   0.562500 0
  0.937500   0.750000 0
  0.687500   0.687500 0
  0.687500   0.750000 0
  0.687500   0.812500 0
  0.687500   0.875000 0
  0.625000   0.562500 0
  0.937500   0.875000 0
  0.625000   0.625000 0
  0.625000   0.750000 0
  0.625000   0.812500 0
  0.937500   0.937500 0
  0.625000   0.687500 0
  0.687500   1.000000 0
  1.000000   0.750000 0
  1.000000   0.812500 0
  1.000000   0.937500 0
  1.000000   1.000000 0
  0.812500   0.437500 0
  0.937500   0.500000 0
  0.750000   0.375000 0
  0.687500   0.312500 0
  0.812500   0.000000 0
  0.812500   0.187500 0
  0.812500   0.125000 0
  0.812500   0.062500 0
  0.625000   0.250000 0
  0.750000   0.000000 0
  0.750000   0.500000 0
  0.750000   0.437500 0
  0.750000   0.312500 0
  0.562500   0.500000 0
  0.750000   0.250000 0
  0.750000   0.187500 0
  0.750000   0.125000 0
  0.750000   0.062500 0
  0.812500   0.250000 0
  0.562500   0.437500 0
  0.562500   0.375000 0
  0.562500   0.312500 0
  0.812500   0.312500 0
  0.812500   0.375000 0
  0.875000   0.500000 0
  0.562500   0.250000 0
  0.812500   0.500000 0
  0.875000   0.375000 0
  0.562500   0.125000 0
  0.875000   0.437500 0
  0.562500   0.187500 0
  0.562500   0.000000 0
  0.875000   0.312500 0
  0.625000   0.312500 0
  0.625000   0.375000 0
  0.625000   0.437500 0
  0.625000   0.500000 0
  0.937500   0.312500 0
  0.625000   0.062500 0
  0.937500   0.375000 0
  0.625000   0.125000 0
  0.937500   0.437500 0
  0.625000   0.187500 0
  0.625000   0.000000 0
  0.687500   0.375000 0
  0.000000   0.437500 0
  0.500000   0.187500 0
  0.312500   0.187500 0
  0.375000   0.125000 0
  0.250000   1.000000 0
  0.125000   0.437500 0
  0.312500   0.250000 0
  0.062500   0.062500 0
  0.437500   0.187500 0
  0.375000   0.187500 0
  0.562500   0.062500 0
  0.437500   0.937500 0
  0.312500   0.062500 0
  0.187500   0.937500 0
  0.062500   0.500000 0
  0.125000   0.500000 0
  0.187500   0.062500 0
  0.937500   0.187500 0
  0.062500   0.937500 0
  0.500000   0.312500 0
  0.250000   0.125000 0
  1.000000   0.250000 0
  0.125000   1.000000 0
  1.000000   0.437500 0
  0.312500   0.000000 0
  0.187500   0.875000 0
  0.250000   0.062500 0
  1.000000   0.187500 0
  0.125000   0.937500 0
  1.000000   0.375000 0
  0.250000   0.000000 0
  1.000000   0.125000 0
  0.125000   0.875000 0
  1.000000   0.312500 0
  0.062500   0.312500 0
  0.500000   0.062500 0
  0.000000   0.312500 0
  0.187500   0.125000 0
  0.250000   0.375000 0
  0.500000   0.125000 0
  0.312500   0.312500 0
  0.000000   0.375000 0
  0.062500   0.375000 0
  0.250000   0.187500 0
  1.000000   0.500000 0
  0.375000   0.375000 0
  0.062500   0.125000 0
  0.312500   0.375000 0
  0.000000   0.125000 0
  0.187500   0.187500 0
  0.375000   0.000000 0
  0.437500   0.500000 0
  0.125000   0.250000 0
  0.187500   0.250000 0
  0.187500   0.312500 0
  0.250000   0.312500 0
  0.187500   0.375000 0
  0.437500   0.000000 0
  0.312500   0.875000 0
  0.437500   0.312500 0
  0.125000   0.062500 0
  0.187500   0.437500 0
  0.000000   0.625000 0
  0.375000   0.062500 0
  0.250000   0.937500 0
  0.375000   0.312500 0
  0.187500   0.500000 0
  0.437500   0.062500 0
  0.250000   0.250000 0
  0.000000   0.250000 0
  0.000000   0.062500 0
  0.500000   0.437500 0
  0.312500   0.625000 0
  0.937500   1.000000 0
  0.000000   0.000000 0
  0.062500   0.437500 0
  0.312500   0.437500 0
  0.000000   0.187500 0
  0.500000   0.250000 0
  0.187500   0.000000 0
  0.937500   0.125000 0
  0.062500   0.875000 0
  0.500000   0.375000 0
  0.250000   0.500000 0
  0.062500   0.687500 0
  0.375000   0.250000 0
  0.062500   0.000000 0
  0.125000   0.375000 0
  0.125000   0.125000 0
  0.875000   0.250000 0
  0.000000   1.000000 0
  0.437500   0.437500 0
  0.125000   0.187500 0
  0.125000   0.312500 0
  0.312500   0.125000 0
  0.187500   1.000000 0
  0.437500   0.125000 0
  0.312500   1.000000 0
  0.125000   0.000000 0
  0.875000   0.125000 0
  0.000000   0.875000 0
  0.437500   0.250000 0
  0.437500   0.375000 0
  0.250000   0.562500 0
  0.000000   0.500000 0
  0.062500   0.187500 0
  0.375000   0.500000 0
  0.062500   0.250000 0
  0.500000   0.000000 0
  0.375000   0.875000 0
  0.500000   0.500000 0
  0.375000   0.437500 0
  0.312500   0.500000 0
  0.250000   0.437500 0
  0.500000   1.000000 0
  0.500000   0.937500 0
  0.500000   0.750000 0
  0.187500   0.687500 0
  0.187500   0.625000 0
  0.500000   0.875000 0
  0.187500   0.562500 0
  0.500000   0.812500 0
  0.437500   0.750000 0
  0.125000   0.687500 0
  0.125000   0.625000 0
  0.437500   0.875000 0
  0.125000   0.562500 0
  0.437500   0.812500 0
  1.000000   0.062500 0
  0.125000   0.812500 0
  0.437500   1.000000 0
  0.375000   0.750000 0
  0.062500   0.625000 0
  0.062500   0.562500 0
  0.375000   0.812500 0
  1.000000   0.875000 0
  0.375000   0.937500 0
  0.000000   0.562500 0
  0.312500   0.812500 0
  0.312500   0.750000 0
  0.937500   0.000000 0
  0.062500   0.750000 0
  0.375000   1.000000 0
  0.937500   0.062500 0
  0.062500   0.812500 0
  0.187500   0.750000 0
  0.875000   0.187500 0
  0.000000   0.937500 0
  0.000000   0.687500 0
  0.312500   0.937500 0
  0.875000   0.000000 0
  0.000000   0.750000 0
  0.875000   0.062500 0
  0.000000   0.812500 0
  0.250000   0.625000 0
  0.250000   0.687500 0
  0.250000   0.750000 0
  0.937500   0.250000 0
  0.062500   1.000000 0
  0.250000   0.812500 0
  0.250000   0.875000 0
  1.000000   0.000000 0
  0.125000   0.750000 0
  0.312500   0.562500 0
  0.312500   0.687500 0
  0.375000   0.562500 0
  0.187500   0.812500 0
  0.375000   0.625000 0
  0.375000   0.687500 0
  0.437500   0.562500 0
  0.437500   0.625000 0
  0.437500   0.687500 0
  0.500000   0.562500 0
  0.500000   0.625000 0
  0.500000   0.687500 0
  0.687500   0.125000 0
  0.687500   0.000000 0
  0.687500   0.250000 0
  0.687500   0.187500 0
  0.687500   0.062500 0
  0.687500   0.500000 0
  0.687500   0.437500 0
CELLS 478 1912
3 110 203 116
3 153 114 167
3 108 185 208
3 160 156 150
3 162 113 147
3 154 147 172
3 176 214 143
3 119 157 170
3 198 178 158
3 170 174 110
3 194 163 112
3 193 205 114
3 146 108 115
3 195 123 144
3 156 144 127
3 113 192 147
3 156 199 144
3 184 212 176
3 209 189 198
3 157 164 170
3 200 161 194
3 145 220 168
3 218 209 198
3 220 183 190
3 177 193 114
3 144 123 133
3 150 201 109
3 167 123 195
3 215 117 142
3 150 109 175
3 214 159 141
3 172 166 152
3 201 170 110
3 149 200 194
3 189 178 198
3 127 201 150
3 218 213 219
3 147 192 172
3 148 149 107
3 116 203 115
3 192 208 172
3 170 164 174
3 163 145 168
3 205 186 167
3 183 219 190
3 176 212 214
3 185 126 166
3 159 156 160
3 107 182 211
3 155 114 153
3 174 203 110
3 154 152 183
3 145 147 154
3 149 141 200
3 152 218 183
3 116 115 192
3 214 212 199
3 137 131 133
3 112 122 121
3 144 133 127
3 116 192 113
3 143 141 148
3 153 167 195
3 178 217 158
3 161 163 194
3 183 218 219
3 167 186 123
3 133 119 127
3 220 154 183
3 154 172 152
3 156 127 150
3 161 162 163
3 164 215 174
3 107 149 182
3 200 160 161
3 126 189 209
3 182 121 211
3 168 220 173
3 203 146 115
3 114 205 167
3 112 163 168
3 110 116 109
3 194 112 182
3 166 209 152
3 182 112 121
3 214 199 159
3 133 131 119
3 201 110 109
3 152 209 218
3 143 214 141
3 186 137 123
3 175 113 162
3 115 208 192
3 160 150 175
3 215 142 174
3 199 195 144
3 159 160 200
3 115 108 208
3 184 153 212
3 181 193 177
3 131 157 119
3 127 119 201
3 162 145 163
3 148 141 149
3 201 119 170
3 162 147 145
3 159 199 156
3 123 137 133
3 208 185 166
3 177 114 155
3 141 159 200
3 145 154 220
3 109 113 175
3 166 126 209
3 149 194 182
3 172 208 166
3 155 153 184
3 109 116 113
3 220 190 173
3 118 222 221
3 278 281 223
3 277 280 281
3 158 217 279
3 118 221 237
3 118 232 222
3 232 234 226
3 229 278 223
3 232 226 222
3 278 277 281
3 234 228 226
3 277 276 280
3 229 223 228
3 276 158 279
3 243 118 237
3 216 232 118
3 229 275 278
3 274 277 278
3 277 272 276
3 216 118 243
3 216 241 232
3 238 275 229
3 275 274 278
3 232 241 234
3 274 272 277
3 272 213 276
3 165 216 243
3 245 241 216
3 238 271 275
3 275 179 274
3 270 272 274
3 243 237 249
3 219 213 272
3 256 165 243
3 245 216 165
3 245 246 241
3 236 269 273
3 230 252 269
3 266 245 165
3 276 279 280
3 263 246 245
3 231 225 224
3 225 233 227
3 240 233 231
3 121 122 233
3 231 224 230
3 139 132 120
3 240 121 233
3 248 269 236
3 267 256 171
3 191 230 269
3 266 165 267
3 239 231 230
3 263 245 266
3 191 269 248
3 188 139 135
3 191 239 230
3 252 263 266
3 240 231 239
3 213 158 276
3 224 262 263
3 211 121 240
3 256 243 249
3 246 271 238
3 125 129 265
3 125 188 135
3 251 248 236
3 255 191 248
3 132 273 267
3 169 239 191
3 273 252 266
3 169 191 255
3 233 122 227
3 269 252 273
3 258 248 251
3 211 240 244
3 230 224 252
3 244 239 169
3 260 251 188
3 258 251 260
3 244 240 239
3 260 188 207
3 207 125 254
3 254 265 197
3 207 188 125
3 139 120 135
3 135 202 129
3 122 173 227
3 139 236 132
3 275 271 179
3 231 233 225
3 132 236 273
3 255 248 258
3 254 125 265
3 227 173 210
3 273 266 267
3 225 227 261
3 225 261 262
3 224 225 262
3 120 111 202
3 173 190 210
3 227 210 261
3 224 263 252
3 120 171 111
3 125 135 129
3 210 190 270
3 267 165 256
3 262 261 271
3 246 262 271
3 234 229 228
3 171 204 111
3 256 249 204
3 190 219 270
3 271 261 179
3 263 262 246
3 171 256 204
3 246 238 241
3 135 120 202
3 270 219 272
3 179 270 274
3 103 130 151
3 124 134 128
3 250 235 138
3 247 268 235
3 103 101 130
3 101 99 136
3 264 124 128
3 101 136 130
3 124 187 134
3 99 140 136
3 187 250 138
3 264 128 140
3 250 247 235
3 91 103 63
3 264 253 124
3 206 187 124
3 257 247 250
3 89 103 91
3 89 94 101
3 94 196 99
3 196 253 264
3 89 101 103
3 253 206 124
3 101 94 99
3 206 259 187
3 196 264 99
3 259 257 250
3 85 89 91
3 196 67 253
3 69 259 206
3 62 85 91
3 84 89 85
3 84 80 94
3 100 105 286
3 67 78 68
3 96 95 106
3 95 70 65
3 64 85 62
3 187 138 134
3 74 84 85
3 117 100 102
3 93 105 100
3 97 287 98
3 96 288 97
3 104 284 70
3 97 288 287
3 77 78 67
3 83 96 82
3 117 93 100
3 87 70 95
3 64 62 73
3 90 102 104
3 76 84 74
3 83 87 95
3 82 96 97
3 92 90 104
3 187 259 250
3 284 76 74
3 83 95 96
3 117 102 90
3 215 93 117
3 62 91 86
3 80 67 196
3 81 98 75
3 81 82 97
3 185 87 83
3 288 106 73
3 108 92 87
3 106 65 64
3 108 87 185
3 106 95 65
3 142 117 90
3 126 83 82
3 142 90 146
3 66 257 259
3 104 285 284
3 146 92 108
3 70 284 65
3 146 90 92
3 65 284 74
3 189 81 178
3 126 82 189
3 178 75 217
3 105 283 286
3 102 282 285
3 102 285 104
3 96 106 288
3 178 81 75
3 286 283 79
3 185 83 126
3 282 286 78
3 106 64 73
3 285 282 77
3 189 82 81
3 285 77 76
3 288 72 287
3 283 71 79
3 286 79 78
3 282 78 77
3 65 74 64
3 285 76 284
3 288 73 72
3 78 79 68
3 73 62 88
3 76 77 80
3 81 97 98
3 79 71 69
3 76 80 84
3 74 85 64
3 99 264 140
3 73 88 72
3 62 86 88
3 71 66 69
3 68 79 69
3 80 77 67
3 80 196 94
3 69 66 259
3 84 94 89
3 68 69 206
3 242 60 55
3 59 242 51
3 58 59 4
3 0 58 45
3 1 0 6
3 2 1 7
3 51 242 55
3 4 59 51
3 45 58 4
3 8 2 7
3 63 151 8
3 55 180 34
3 38 45 4
3 6 45 11
3 8 7 14
3 36 55 34
3 40 51 36
3 11 45 38
3 13 6 11
3 14 7 13
3 31 11 38
3 13 11 3
3 14 13 17
3 20 86 15
3 30 36 16
3 32 40 30
3 32 31 38
3 3 11 31
3 56 52 10
3 50 44 52
3 30 16 5
3 18 49 42
3 54 48 18
3 53 47 54
3 91 63 86
3 37 52 56
3 41 50 52
3 39 98 50
3 41 39 50
3 21 5 57
3 75 98 39
3 22 21 12
3 222 28 221
3 42 43 33
3 36 51 55
3 41 52 37
3 18 42 28
3 29 54 18
3 9 17 24
3 26 53 54
3 25 19 9
3 29 18 28
3 29 26 54
3 35 53 26
3 42 49 12
3 279 75 39
3 7 1 6
3 280 39 41
3 6 0 45
3 281 41 37
3 19 20 15
3 24 3 23
3 28 42 33
3 228 26 226
3 223 35 228
3 28 33 221
3 40 36 30
3 280 41 281
3 281 37 223
3 55 60 180
3 222 29 28
3 32 38 40
3 279 39 280
3 226 26 29
3 226 29 222
3 47 46 9
3 228 35 26
3 46 10 25
3 223 37 35
3 10 44 27
3 42 12 43
3 52 44 10
3 103 151 63
3 46 56 10
3 60 61 180
3 53 56 46
3 88 86 20
3 53 46 47
3 19 15 14
3 54 47 48
3 19 14 17
3 48 49 18
3 17 13 3
3 217 75 279
3 12 57 43
3 36 34 16
3 287 72 44
3 15 8 14
3 47 24 48
3 48 23 49
3 49 22 12
3 151 2 8
3 12 21 57
3 44 72 27
3 10 27 25
3 46 25 9
3 47 9 24
3 24 23 48
3 13 7 6
3 23 22 49
3 72 88 27
3 22 31 32
3 27 20 25
3 23 31 22
3 21 30 5
3 27 88 20
3 25 20 19
3 9 19 17
3 17 3 24
3 23 3 31
CELL_TYPES 478
5
5
5
5
5
5
5
5
5
5
5
5
5
5
5
5
5
5
5
5
5
5
5
5
5
5
5
5
5
5
5
5
5
5
5
5
5
5
5
5
5
5
5
5
5
5
5
5
5
5
5
5
5
5
5
5
5
5
5
5
5
5
5
5
5
5
5
5
5
5
5
5
5
5
5
5
5
5
5
5
5
5
5
5
5
5
5
5
5
5
5
5
5
5
5
5
5
5
5
5
5
5
5
5
5
5
5
5
5
5
5
5
5
5
5
5
5
5
5
5
5
5
5
5
5
5
5
5
5
5
5
5
5
5
5
5
5
5
5
5
5
5
5
5
5
5
5
5
5
5
5
5
5
5
5
5
5
5
5
5
5
5
5
5
5
5
5
5
5
5
5
5
5
5
5
5
5
5
5
5
5
5
5
5
5
5
5
5
5
5
5
5
5
5
5
5
5
5
5
5
5
5
5
5
5
5
5
5
5
5
5
5
5
5
5
5
5
5
5
5
5
5
5
5
5
5
5
5
5
5
5
5
5
5
5
5
5
5
5
5
5
5
5
5
5
5
5
5
5
5
5
5
5
5
5
5
5
5
5
5
5
5
5
5
5
5
5
5
5
5
5
5
5
5
5
5
5
5
5
5
5
5
5
5
5
5
5
5
5
5
5
5
5
5
5
5
5
5
5
5
5
5
5
5
5
5
5
5
5
5
5
5
5
5
5
5
5
5
5
5
5
5
5
5
5
5
5
5
5
5
5
5
5
5
5
5
5
5
5
5
5
5
5
5
5
5
5
5
5
5
5
5
5
5
5
5
5
5
5
5
5
5
5
5
5
5
5
5
5
5
5
5
5
5
5
5
5
5
5
5
5
5
5
5
5
5
5
5
5
5
5
5
5
5
5
5
5
5
5
5
5
5
5
5
5
5
5
5
5
5
5
5
5
5
5
5
5
5
5
5
5
5
5
5
5
5
5
5
5
5
5
5
5
5
5
5
5
5
5
5
5
5
5
5
5
5
5
5
5
5
5
5
5
5
5
5
5
5
5
5
5
5
5
5
5
5
5
5
5
5
5
5
5
5
5
5
5
5
CELL_DATA 478
VECTORS vector_value float
-0.195673 -1.07743 0
-0.0037583 -0.945326 0
-0.0761947 -1.13151 0
0.0388748 -0.964892 0
0.172051 -1.17973 0
0.0339556 -1.04163 0
-0.0113974 -1.06386 0
0.0135453 -1.06099 0
-0.174515 -1.55059 0
0.148444 -1.19589 0
-0.0259712 -0.938669 0
0 -0.976675 0
0.00455909 -0.956023 0
-0.159719 -1.0477 0
-0.0506433 -1.15677 0
-0.0701972 -1.17973 0
0.230757 -1.15677 0
-0.128113 -1.08665 0
-0.0733934 -0.942294 0
0 -1.06099 0
-0.135315 -1.0029 0
-0.131771 -1.00952 0
-0.0150286 -0.942294 0
0.0263842 -1.16767 0
0.0275912 -0.976675 0
-0.0289489 -1.0477 0
-0.066213 -1.08069 0
-0.0481066 -0.936085 0
-0.117235 -0.900741 0
-0.066213 -0.962168 0
0.0719591 -1.05329 0
-0.02658 -1.01504 0
-0.0772172 -1.19589 0
0.0382595 -1.0029 0
-0.174515 -1.04342 0
-0.0527799 -1.06726 0
-0.201143 -1.54207 0
0.0339556 -1.07558 0
0.013717 -1.08963 0
-0.0822182 -0.963978 0
-0.0637975 -1.07558 0
0.148444 -0.912545 0
-0.0208902 -0.898638 0
0 -0.980434 0
0.015457 -1.1786 0
-0.0113974 -0.969935 0
-0.0628648 -1.02503 0
0.234778 -0.964892 0
0.0311581 -1.15194 0
0.141714 -0.945326 0
-0.195673 -1.54001 0
0.0605484 -1.04266 0
0.0595235 -1.04163 0
-0.00648211 -1.04764 0
0.162328 -0.940879 0
-0.0822182 -1.06918 0
0.0709375 -0.969935 0
0 -1.05749 0
-0.163275 -1.54785 0
-0.0506433 -1.06939 0
-0.0701972 -1.06918 0
-0.000832488 -1.06219 0
0.00548223 -0.936085 0
0.180283 -1.19579 0
-0.0259712 -0.893557 0
0.162328 -1.1786 0
-0.0481066 -1.02854 0
-0.0170459 -1.06939 0
0.0263842 -1.04266 0
0.0605484 -1.01504 0
0.0388748 -1.06726 0
0.0146584 -0.893557 0
0 -0.912545 0
0.0311581 -1.07218 0
-0.135315 -1.50183 0
-0.0733934 -1.0126 0
-0.029701 -1.2128 0
-0.131771 -1.51967 0
-0.00339585 -0.963978 0
-0.0037583 -0.980434 0
0.0140605 -0.898638 0
-0.0739614 -1.07743 0
0.171774 -0.938669 0
-0.0136134 -1.00207 0
0.171774 -1.2128 0
0.0719591 -0.968913 0
-0.0170459 -1.07454 0
-0.0772172 -1.08069 0
-0.0136134 -0.940879 0
-0.000832488 -1.05329 0
0 -1.02854 0
-0.176986 -1.52877 0
-0.0637975 -1.05076 0
0.0415987 -0.962168 0
0.0118047 -0.900741 0
-0.159719 -1.54725 0
0.234778 -1.13173 0
0.00455909 -1.05076 0
-0.128113 -1.61271 0
0 -1.00427 0
0 -1.07454 0
-0.0527799 -1.10513 0
-0.0208902 -0.929105 0
0.013717 -1.04764 0
0.0135453 -1.10513 0
0.172051 -0.929105 0
0.230757 -0.968913 0
-0.0289489 -1.05749 0
-0.0761947 -1.03836 0
0.0275912 -1.05945 0
-0.00648211 -1.13173 0
0.0595235 -1.00952 0
-0.176986 -1.07294 0
-0.0628648 -1.00207 0
0.0382595 -1.07218 0
-0.02658 -1.03836 0
0.141714 -1.34288 0
-0.0739614 -1.07294 0
0.220226 -1.16767 0
0.0263653 -1.00834 0
0.00177657 -1.20108 0
0.0339408 -1.0552 0
0.180283 -1.10142 0
0.023503 -1.00547 0
0.0263653 -1.00371 0
0.0461067 -0.94547 0
-0.211334 -0.987972 0
0.0461067 -1.02345 0
0.00177657 -1.02303 0
0.149757 -1.04912 0
0.0339408 -1.04404 0
-0.211334 -1.20121 0
0.0462147 -0.967348 0
0.0245978 -1.00547 0
-0.0121299 -1.00371 0
0.0368365 -0.987972 0
0.0549522 -1.02303 0
-0.0304815 -1.04404 0
0.0245978 -1.04043 0
-0.0121299 -0.962457 0
-0.00903015 -0.942106 0
0.0368365 -1.00492 0
-0.0291177 -0.94547 0
0.0549522 -1.12948 0
-0.0304815 -0.960409 0
-0.0901064 -1.04043 0
-0.205907 -0.962457 0
0.0996474 -0.942106 0
0.179513 -1.00492 0
-0.19955 -1.12948 0
0.0344502 -1.01533 0
-0.201143 -0.960409 0
0.0497057 -1.18025 0
-0.0901064 -1.07826 0
-0.205907 -1.16983 0
-0.145035 -0.9487 0
-0.0631983 -0.998771 0
-0.114333 -1.07826 0
0.0462147 -1.05632 0
0.00558956 -1.16983 0
-0.0496708 -1.02347 0
0.0416158 -1.13359 0
-0.0423684 -1.0423 0
-0.163275 -0.95832 0
-0.0490822 -1.02406 0
0.343126 -1.58028 0
-0.0423684 -1.07923 0
-0.0131276 -0.9487 0
0.199229 -1.57157 0
-0.0237941 -0.998771 0
-0.192095 -1.0005 0
-0.0314261 -1.02406 0
-0.114333 -1.04991 0
-0.0131276 -1.00944 0
0.0699739 -1.10754 0
-0.0237941 -1.03169 0
-0.0455488 -1.04991 0
-0.0314261 -1.05325 0
-0.0235424 -0.967348 0
-0.0596657 -0.99877 0
-0.029701 -1.07923 0
0.0497057 -1.01533 0
0.166481 -1.00894 0
-0.0390941 -1.0078 0
-0.0344801 -1.00309 0
0.00852054 -0.970348 0
-0.00154069 -1.00944 0
0.0452334 -1.11065 0
-0.00987097 -1.03169 0
-0.0649208 -1.03054 0
-0.00154069 -1.04002 0
0.0416158 -0.95832 0
-0.0631983 -1.03054 0
0.0259616 -0.970348 0
-0.0163881 -1.09254 0
-0.0490822 -1.01289 0
-0.00987097 -1.05976 0
0.144476 -1.66026 0
0.144476 -1.08886 0
-0.0163881 -1.05325 0
-0.137972 -1.37782 0
-0.0391892 -1.10187 0
-0.0234945 -1.02349 0
-0.137972 -1.00309 0
-0.129611 -1.10754 0
-0.0639217 -1.01241 0
0.0422388 -0.958943 0
0.343126 -1.59881 0
0.0996474 -0.925051 0
-0.0496708 -1.0423 0
-0.145035 -1.11065 0
0.0259616 -1.03694 0
-0.0391892 -1.0078 0
0.216263 -0.958943 0
-0.0649208 -1.0005 0
-0.159791 -1.13359 0
-0.159791 -0.923345 0
-0.0596657 -1.02347 0
0.0426292 -0.946725 0
0.220226 -0.962905 0
0.216263 -1.50964 0
-0.0455488 -1.01289 0
0.0539456 -0.958041 0
-0.0344801 -1.01241 0
0.0163609 -0.962905 0
-0.192095 -1.18025 0
0.015759 -0.923345 0
0.015759 -1.00894 0
0.149757 -1.56231 0
0.126547 -0.958041 0
0.0651022 -1.03072 0
0.015457 -0.962001 0
0.0174647 -0.925051 0
0.00558956 -0.99877 0
0.199229 -1.03072 0
0.166481 -1.54222 0
-0.129611 -0.946725 0
-0.19955 -0.962001 0
0.179513 -1.50854 0
-0.0232647 -1.07338 0
0.0358872 -1.09689 0
-0.0148584 -1.11035 0
0 -1.08063 0
-0.0232647 -1.00204 0
0.00154391 -1.02059 0
0.0225869 -1.08359 0
0.00154391 -1.02685 0
0.0358872 -1.23371 0
0.0108901 -1.02994 0
-0.0291575 -1.09605 0
0.0225869 -1.05172 0
-0.0148584 -1.06578 0
0.0192127 -0.959564 0
0.186007 -1.08359 0
-0.166816 -1.23371 0
0 -1.06578 0
0.0192127 -1.00116 0
0.0200941 -1.01037 0
0.0303198 -1.00418 0
0.0661571 -0.963742 0
0.0200941 -1.00204 0
0.186007 -1.58653 0
0.0303198 -1.02059 0
-0.166816 -0.97437 0
0.0661571 -1.04002 0
-0.0451345 -1.02064 0
0.0293002 -1.00116 0
0.0310646 -0.963742 0
0.00113687 -0.97437 0
0.0588535 -1.03071 0
0.0293002 -1.01553 0
0.0241378 -1.00261 0
-0.0126707 -0.891935 0
0.22158 -1.58903 0
0.0150162 -0.966345 0
0.046904 -0.906397 0
0.0141152 -1.03071 0
-0.0291575 -1.16867 0
0.0112165 -1.01553 0
0.12604 -1.51912 0
0 -0.891935 0
0.00788745 -0.945976 0
0.00773873 -0.980858 0
0.16053 -1.46744 0
0.00773873 -0.945827 0
-0.148347 -1.2191 0
0.000503126 -0.979892 0
0.12604 -1.01798 0
-0.0242917 -0.906397 0
0.0110254 -1.02762 0
-0.131828 -0.871952 0
0.0112165 -1.03232 0
-0.0130439 -0.917645 0
0.000503126 -0.980858 0
-0.0510803 -0.9527 0
-0.0451345 -1.09605 0
0.0374143 -1.03232 0
-0.0130439 -0.966345 0
-0.131828 -1.26125 0
0 -1.01798 0
0.0588535 -0.961519 0
0.0257148 -0.958392 0
0.184383 -1.08774 0
0.0426209 -1.02298 0
-0.182675 -0.917645 0
-0.0345696 -0.988135 0
0.180045 -1.49423 0
0.00491879 -0.998233 0
-0.182675 -1.13151 0
0.046904 -0.998233 0
-0.117235 -1.26125 0
-0.0752912 -0.979892 0
0.176722 -1.55521 0
0 -1.02064 0
-0.163772 -1.14314 0
0.180045 -0.956023 0
0.16053 -1.02002 0
0.176722 -0.9527 0
0.0251134 -1.02002 0
-0.022141 -1.04342 0
-0.0425806 -1.0126 0
0.0859103 -1.19579 0
0 -0.904606 0
-0.0388705 -0.996854 0
-0.163772 -0.871952 0
0.0150162 -0.988135 0
-0.022141 -1.08774 0
-0.138282 -0.904606 0
-0.0752912 -1.02503 0
0.204759 -1.54532 0
0.00491879 -1.02762 0
-0.0174863 -0.996854 0
-0.0425806 -1.02298 0
-0.0174863 -1.08824 0
-0.161961 -0.945827 0
0 -1.04289 0
-0.138282 -1.20228 0
0.204759 -1.2191 0
0.0251134 -1.01843 0
0.0374143 -1.14314 0
-0.0345696 -1.07322 0
0.22158 -1.20228 0
0.0110254 -1.07854 0
-0.0185003 -1.08824 0
0.0426209 -0.945976 0
0.0211088 -1.04289 0
-0.0185003 -1.00261 0
0.0141152 -1.01843 0
0.0108901 -1.04002 0
0.00570254 -1.07322 0
0.175876 -1.07854 0
0 -1.02178 0
0.0211088 -1.00181 0
-0.148347 -0.958392 0
0.0257148 -1.00418 0
0.00113687 -1.02178 0
0.0241378 -1.01037 0
0.0285731 -1.00181 0
0.0376668 -1.09749 0
0.135811 -1.36911 0
-0.145715 -1.07768 0
-0.02947 -1.01874 0
-0.000957335 -1.01683 0
0.0261756 -1.06918 0
0.135811 -0.999342 0
-0.145715 -1.65063 0
-0.02947 -0.961435 0
0.139181 -0.956171 0
-0.13708 -1.6238 0
0.0354315 -1.00664 0
-0.0191933 -0.961435 0
-0.000678031 -0.990227 0
-0.00734587 -0.956171 0
0.0303697 -1.0117 0
-0.0764268 -1.10614 0
-0.000678031 -0.94292 0
-0.00149232 -0.991042 0
-0.00734587 -0.995546 0
0.136623 -0.94292 0
0.0474435 -0.991042 0
0.00301193 -0.995546 0
-0.167865 -1.59245 0
0.124807 -0.945727 0
-0.347651 -1.5786 0
0.136623 -1.10913 0
0.0474435 -1.0321 0
-0.0526717 -0.914344 0
-0.0208832 -0.915575 0
-0.0497127 -0.945727 0
0.0633665 -1.06795 0
0.0999325 -1.0313 0
0.198116 -0.963031 0
0.0211677 -0.961519 0
-0.0254312 -0.914344 0
-0.0514407 -0.915575 0
-0.16048 -1.53107 0
-0.16048 -1.02461 0
-0.131202 -0.959256 0
0.184383 -1.18621 0
-0.205375 -1.571 0
0.0112538 -1.00834 0
-0.0186855 -1.02283 0
0.0303697 -0.999342 0
-0.0514407 -0.940353 0
-0.00861537 -1.06795 0
0.026712 -1.0313 0
0.00998518 -1.07631 0
0.0316629 -0.963031 0
-0.00335578 -1.05579 0
0.026712 -1.03263 0
0.0316629 -1.02635 0
0.00234438 -0.992349 0
-0.0537417 -1.18506 0
0.00111622 -1.18621 0
0.0261756 -0.989692 0
0.0328199 -1.02461 0
-0.000957335 -0.990227 0
0.147663 -0.940353 0
-0.167865 -1.08298 0
0.0508174 -1.04088 0
-0.00861537 -1.01276 0
-0.0023371 -1.04912 0
-0.211203 -1.20121 0
0.00683126 -1.01276 0
0.124807 -1.10614 0
0.0328199 -1.0552 0
0.147663 -1.20108 0
0.0376668 -1.00664 0
0.0112538 -1.03263 0
-0.347651 -1.5934 0
0.00111622 -1.05632 0
0.0204338 -1.02635 0
0.0204338 -1.02345 0
-0.0105328 -1.17308 0
-0.0023371 -0.992349 0
0.0226099 -1.02264 0
-0.211203 -1.55995 0
0.157 -0.947363 0
-0.0537417 -1.02283 0
-0.0526717 -0.947363 0
-0.13708 -0.959564 0
-0.160973 -1.02264 0
0.022153 -1.02215 0
-0.160973 -1.53217 0
0.175876 -1.24871 0
0.198116 -1.17308 0
-0.0438886 -0.959003 0
0.0999325 -1.06121 0
-0.0438886 -1.04245 0
0.0633665 -1.06787 0
0.00301193 -1.03547 0
0.0859103 -1.10142 0
-0.0643426 -1.03343 0
0.0588334 -1.0117 0
-0.161961 -1.55984 0
-0.0101782 -0.959003 0
0.0862463 -1.06121 0
0.106584 -1.06787 0
0.180563 -1.18506 0
0.139181 -1.34754 0
-0.205375 -1.03343 0
0.157 -1.24088 0
0.0226099 -1.08175 0
-0.0105328 -1.05579 0
0.0862463 -1.07631 0
0.106584 -1.04088 0
-0.00149232 -0.989692 0
0.180563 -0.993887 0
0.00570254 -1.24088 0
-0.0556456 -1.10913 0
-0.00212956 -1.08175 0
0.0595947 -0.993887 0
-0.0632414 -0.959256 0
-0.00212956 -1.24871 0
-0.00335578 -1.08298 0
0.00998518 -1.04245 0
0.0508174 -1.03547 0
0.0595947 -1.0321 0
