# vtk DataFile Version 2.0
Unstructured Grid by M++
ASCII
DATASET UNSTRUCTURED_GRID
POINTS 4072 float
  0.546875   0.656250 0
  0.546875   0.578125 0
  0.718750   0.625000 0
  0.656250   0.875000 0
  0.734375   0.609375 0
  0.671875   0.859375 0
  0.718750   0.609375 0
  0.656250   0.859375 0
  0.734375   0.593750 0
  0.671875   0.843750 0
  0.578125   0.984375 0
  0.640625   0.734375 0
  0.546875   0.593750 0
  0.593750   0.984375 0
  0.656250   0.734375 0
  0.640625   0.984375 0
  0.703125   0.734375 0
  0.546875   0.781250 0
  0.609375   0.531250 0
  0.546875   0.796875 0
  0.968750   0.531250 0
  0.609375   0.546875 0
  0.890625   0.984375 0
  0.953125   0.734375 0
  0.578125   0.593750 0
  0.515625   0.843750 0
  0.953125   0.625000 0
  0.890625   0.875000 0
  0.781250   0.578125 0
  0.718750   0.828125 0
  0.734375   0.812500 0
  0.640625   0.968750 0
  0.703125   0.718750 0
  0.671875   0.937500 0
  0.734375   0.687500 0
  0.671875   0.953125 0
  0.734375   0.703125 0
  0.656250   0.953125 0
  0.718750   0.703125 0
  0.656250   0.968750 0
  0.718750   0.718750 0
  0.578125   0.765625 0
  0.562500   0.765625 0
  0.578125   0.750000 0
  0.921875   0.953125 0
  0.984375   0.703125 0
  0.921875   0.937500 0
  0.984375   0.687500 0
  0.562500   0.953125 0
  0.578125   0.578125 0
  0.515625   0.828125 0
  0.562500   0.578125 0
  0.656250   0.937500 0
  0.718750   0.687500 0
  0.640625   0.937500 0
  0.703125   0.687500 0
  0.640625   0.953125 0
  0.703125   0.703125 0
  0.546875   0.765625 0
  0.609375   0.515625 0
  0.531250   0.765625 0
  0.593750   0.515625 0
  0.890625   0.937500 0
  0.953125   0.687500 0
  0.859375   0.750000 0
  0.796875   1.000000 0
  0.984375   0.734375 0
  0.921875   0.984375 0
  0.968750   0.734375 0
  0.906250   0.984375 0
  0.984375   0.718750 0
  0.921875   0.968750 0
  0.593750   0.546875 0
  0.531250   0.796875 0
  0.593750   0.531250 0
  0.531250   0.781250 0
  0.953125   0.515625 0
  0.578125   0.562500 0
  0.515625   0.812500 0
  0.578125   0.546875 0
  0.515625   0.796875 0
  0.593750   0.609375 0
  0.531250   0.859375 0
  0.578125   0.609375 0
  0.515625   0.859375 0
  0.859375   0.703125 0
  0.796875   0.953125 0
  0.828125   0.750000 0
  0.765625   1.000000 0
  0.828125   0.734375 0
  0.765625   0.984375 0
  0.921875   0.796875 0
  0.984375   0.546875 0
  0.562500   0.812500 0
  0.906250   0.796875 0
  0.921875   0.781250 0
  0.812500   0.765625 0
  0.750000   1.000000 0
  0.812500   0.750000 0
  0.859375   0.531250 0
  0.796875   0.781250 0
  0.796875   0.765625 0
  0.781250   0.781250 0
  0.875000   0.578125 0
  0.812500   0.828125 0
  0.937500   0.734375 0
  0.875000   0.984375 0
  0.765625   0.578125 0
  0.703125   0.828125 0
  0.781250   0.562500 0
  0.718750   0.812500 0
  0.750000   0.578125 0
  0.687500   0.828125 0
  0.765625   0.562500 0
  0.703125   0.812500 0
  0.625000   0.953125 0
  0.687500   0.703125 0
  0.609375   0.968750 0
  0.671875   0.718750 0
  0.609375   0.953125 0
  0.671875   0.703125 0
  0.625000   0.875000 0
  0.687500   0.625000 0
  0.609375   0.890625 0
  0.671875   0.640625 0
  0.625000   0.890625 0
  0.687500   0.640625 0
  0.609375   0.906250 0
  0.671875   0.656250 0
  0.937500   0.578125 0
  0.875000   0.828125 0
  0.921875   0.593750 0
  0.859375   0.843750 0
  0.921875   0.578125 0
  0.859375   0.828125 0
  0.937500   0.640625 0
  0.875000   0.890625 0
  0.562500   0.703125 0
  0.546875   0.718750 0
  0.546875   0.703125 0
  0.531250   0.718750 0
  0.906250   0.968750 0
  0.968750   0.718750 0
  0.906250   0.953125 0
  0.968750   0.703125 0
  0.906250   0.937500 0
  0.968750   0.687500 0
  0.890625   0.968750 0
  0.953125   0.718750 0
  0.890625   0.953125 0
  0.953125   0.703125 0
  0.593750   0.765625 0
  0.609375   0.750000 0
  0.593750   0.750000 0
  0.937500   0.953125 0
  0.843750   0.921875 0
  0.906250   0.671875 0
  0.828125   0.937500 0
  0.890625   0.687500 0
  0.546875   0.750000 0
  0.546875   0.734375 0
  0.531250   0.750000 0
  0.953125   0.671875 0
  0.890625   0.921875 0
  0.531250   0.671875 0
  0.515625   0.687500 0
  0.875000   0.921875 0
  0.937500   0.671875 0
  0.515625   0.937500 0
  0.859375   0.937500 0
  0.921875   0.687500 0
  0.859375   0.921875 0
  0.921875   0.671875 0
  0.843750   0.937500 0
  0.906250   0.687500 0
  0.921875   0.703125 0
  0.859375   0.953125 0
  0.937500   0.703125 0
  0.875000   0.953125 0
  0.937500   0.687500 0
  0.875000   0.937500 0
  0.828125   0.656250 0
  0.968750   0.593750 0
  0.968750   0.578125 0
  0.906250   0.812500 0
  0.953125   0.593750 0
  0.953125   0.578125 0
  0.875000   0.843750 0
  0.937500   0.593750 0
  0.953125   0.656250 0
  0.531250   0.921875 0
  0.890625   0.906250 0
  0.953125   0.640625 0
  0.890625   0.890625 0
  0.937500   0.656250 0
  0.875000   0.906250 0
  0.718750   0.593750 0
  0.656250   0.843750 0
  0.734375   0.578125 0
  0.671875   0.828125 0
  0.718750   0.578125 0
  0.656250   0.828125 0
  0.734375   0.562500 0
  0.671875   0.812500 0
  0.578125   0.890625 0
  0.640625   0.640625 0
  0.593750   0.890625 0
  0.656250   0.640625 0
  0.578125   0.906250 0
  0.640625   0.656250 0
  0.578125   0.953125 0
  0.640625   0.703125 0
  0.593750   0.953125 0
  0.656250   0.703125 0
  0.578125   0.968750 0
  1.000000   0.703125 0
  0.640625   0.718750 0
  0.593750   0.968750 0
  0.656250   0.718750 0
  0.734375   0.515625 0
  0.671875   0.765625 0
  0.968750   0.765625 0
  0.984375   0.750000 0
  0.843750   0.750000 0
  0.781250   1.000000 0
  0.859375   0.734375 0
  0.796875   0.984375 0
  0.843750   0.734375 0
  0.781250   0.984375 0
  0.859375   0.718750 0
  0.796875   0.968750 0
  0.843750   0.718750 0
  0.781250   0.968750 0
  0.828125   0.640625 0
  0.765625   0.875000 0
  0.828125   0.625000 0
  0.875000   0.546875 0
  0.812500   0.796875 0
  0.812500   0.781250 0
  0.796875   0.796875 0
  0.875000   0.609375 0
  0.812500   0.859375 0
  0.968750   0.796875 0
  0.546875   0.687500 0
  0.546875   0.671875 0
  0.531250   0.687500 0
  0.984375   0.796875 0
  1.000000   0.796875 0
  0.562500   0.796875 0
  0.578125   0.781250 0
  0.625000   0.531250 0
  0.562500   0.781250 0
  0.578125   0.640625 0
  0.515625   0.890625 0
  0.562500   0.640625 0
  0.578125   0.625000 0
  0.515625   0.875000 0
  0.875000   0.703125 0
  0.812500   0.953125 0
  0.750000   0.609375 0
  0.687500   0.859375 0
  0.765625   0.593750 0
  0.703125   0.843750 0
  0.750000   0.593750 0
  0.687500   0.843750 0
  0.625000   0.984375 0
  0.687500   0.734375 0
  0.625000   0.968750 0
  0.687500   0.718750 0
  0.609375   1.000000 0
  0.671875   0.750000 0
  0.609375   0.984375 0
  0.671875   0.734375 0
  0.625000   0.906250 0
  0.687500   0.656250 0
  0.609375   0.921875 0
  0.671875   0.671875 0
  0.625000   0.921875 0
  0.687500   0.671875 0
  0.609375   0.937500 0
  0.671875   0.687500 0
  0.625000   0.937500 0
  0.687500   0.687500 0
  0.968750   0.656250 0
  0.906250   0.906250 0
  0.984375   0.640625 0
  0.921875   0.890625 0
  0.968750   0.640625 0
  0.906250   0.890625 0
  0.984375   0.625000 0
  0.921875   0.875000 0
  0.968750   0.625000 0
  0.906250   0.875000 0
  0.953125   0.765625 0
  0.906250   1.000000 0
  0.968750   0.750000 0
  0.937500   0.765625 0
  0.953125   0.750000 0
  0.953125   0.796875 0
  0.937500   0.796875 0
  0.953125   0.781250 0
  1.000000   0.531250 0
  0.937500   0.781250 0
  0.984375   1.000000 0
  1.000000   1.000000 0
  1.000000   0.984375 0
  0.890625   0.765625 0
  0.718750   0.515625 0
  0.656250   0.765625 0
  0.890625   0.796875 0
  0.890625   0.781250 0
  0.562500   0.671875 0
  0.921875   0.656250 0
  0.578125   0.656250 0
  0.515625   0.906250 0
  0.562500   0.656250 0
  0.890625   0.750000 0
  0.828125   1.000000 0
  0.875000   0.734375 0
  0.812500   0.984375 0
  0.546875   0.968750 0
  0.625000   0.718750 0
  0.171875   0.656250 0
  0.750000   0.046875 0
  0.062500   0.609375 0
  0.046875   0.609375 0
  0.734375   0.031250 0
  0.046875   0.593750 0
  0.718750   0.125000 0
  0.703125   0.109375 0
  0.687500   0.125000 0
  0.500000   0.937500 0
  0.437500   0.765625 0
  0.359375   0.625000 0
  0.296875   0.875000 0
  0.343750   0.609375 0
  0.281250   0.859375 0
  0.250000   0.515625 0
  0.484375   0.531250 0
  0.468750   0.515625 0
  0.468750   0.656250 0
  0.453125   0.671875 0
  0.031250   0.937500 0
  0.390625   0.921875 0
  0.250000   0.968750 0
  0.765625   0.234375 0
  0.750000   0.093750 0
  0.750000   0.078125 0
  0.000000   0.515625 0
  0.500000   0.765625 0
  0.328125   0.718750 0
  0.343750   0.703125 0
  0.328125   0.687500 0
  0.312500   0.703125 0
  0.343750   0.781250 0
  0.406250   0.531250 0
  0.015625   0.531250 0
  0.062500   0.593750 0
  0.750000   0.015625 0
  0.062500   0.578125 0
  0.046875   0.578125 0
  0.734375   0.000000 0
  0.296875   0.687500 0
  0.484375   0.843750 0
  0.031250   0.593750 0
  0.718750   0.015625 0
  0.031250   0.578125 0
  0.468750   0.828125 0
  0.703125   0.000000 0
  0.750000   0.234375 0
  0.453125   0.750000 0
  0.218750   0.687500 0
  0.421875   1.000000 0
  0.000000   0.218750 0
  0.484375   0.750000 0
  0.468750   0.765625 0
  0.468750   0.875000 0
  0.046875   0.093750 0
  0.296875   0.781250 0
  0.437500   0.984375 0
  0.015625   0.203125 0
  0.500000   0.796875 0
  0.078125   0.015625 0
  0.484375   0.875000 0
  0.484375   1.000000 0
  0.062500   0.218750 0
  0.468750   0.859375 0
  0.484375   0.781250 0
  0.062500   0.000000 0
  0.484375   0.921875 0
  0.062500   0.140625 0
  0.453125   1.000000 0
  0.031250   0.218750 0
  0.312500   0.562500 0
  0.250000   0.812500 0
  0.468750   0.937500 0
  0.046875   0.156250 0
  0.343750   0.593750 0
  0.375000   0.562500 0
  0.312500   0.812500 0
  0.203125   0.671875 0
  1.000000   0.234375 0
  0.375000   0.593750 0
  0.312500   0.796875 0
  0.484375   0.890625 0
  0.062500   0.109375 0
  0.296875   0.796875 0
  0.187500   0.656250 0
  0.984375   0.218750 0
  0.359375   0.546875 0
  0.375000   0.625000 0
  0.359375   0.609375 0
[...]
POINT_DATA 4072
SCALARS scalar_value float 1
LOOKUP_TABLE default
-0.00115875
-0.000772075
-0.000229397
-0.000386484
0.000355028
-0.00122854
0.00085179
0.000721372
0.000261463
0.000305922
-1.18982e-05
0.000720108
-0.00107387
-0.00172008
3.13939e-05
-0.000836333
0.00196575
0.000101285
-0.00149876
-0.00236414
0.00124415
-0.0019447
-0.000619788
-0.000415789
-0.00116244
-0.00184906
0.000183943
-0.00126035
-0.00139958
0.000228632
0.00133744
7.82937e-06
0.00153837
-0.000795634
0.000705691
0.000205031
0.00102374
-0.000734039
0.000820567
0.000323504
0.000873669
-0.00173523
-0.000527133
-0.00286444
-0.000551769
-0.00118793
-0.001005
-0.00196276
-0.00035158
-0.000480718
-0.00112901
0.000363599
0.000893942
0.000976121
-0.000670101
0.00177644
-6.48461e-05
0.00127166
-0.00153977
-0.00171831
-0.000107575
0.0015034
-0.00073594
0.000510624
-0.000588032
0
-0.00181566
-0.000906248
-0.000960777
3.44978e-05
-0.00162863
-0.000387834
0.00134423
0.000674234
0.000670741
-0.000123352
-0.000284075
-0.000752019
-0.000377529
-0.000357525
-0.0027733
0.00163694
-0.000978286
-0.00124823
-0.000853427
-0.000139109
-0.000520707
-0.00304011
0
-0.00130632
0.00147139
-0.00106556
-0.00191152
-0.000526494
0.000933709
-0.00131075
0.0018315
0
0.00163357
-0.00059429
-0.000420445
-0.000458107
0.000117386
9.57347e-05
0.000443634
-0.000347922
0.00259846
0.00121885
0.00166009
0.000210338
0.000619361
0.0012147
0.000424644
9.22414e-05
0.00211199
-0.000388772
-0.000462073
0.00105205
3.53398e-05
-0.000481173
0.000636025
-0.000362534
0.000136907
0.00105594
0.000133271
-0.000310324
-0.000256272
-0.000666009
0.000301744
-0.00344196
-0.000429859
-0.00433457
0.000546992
0.000977119
0.000129031
1.01119e-05
0.000770361
-0.00111896
-0.00175975
-4.26433e-05
0.00105749
3.64096e-05
-0.000126145
0.000295775
-0.00159614
-0.000485072
0.000598765
-0.0011381
0.000205929
0.000263808
-0.000523814
-0.00348903
-0.00378426
0.00447279
-0.000605146
-0.000625621
-0.000384712
-0.00100414
-0.000560647
-0.000332713
-0.000335215
0.000330148
-0.000395777
-0.000721905
4.63747e-05
-0.00219064
0.000684466
-0.000568814
-0.00165777
-0.000379583
-0.00200946
-0.00046622
-0.0014874
0.000583331
0.00101773
-0.0021645
-0.00111431
-0.00105814
0.00109954
0.00186878
0.00225834
-0.00126916
0.000969351
-0.00129503
0.00166426
-0.000128194
0.00237054
-0.000279001
0.000787146
0.00043243
0.000537906
-6.24908e-05
0.000281265
-0.00175094
0.0013189
0.0019962
-0.000560232
-0.000206434
0.0012029
-0.00021086
-0.000426622
0.000234722
-0.000913279
-0.00055276
-3.83004e-05
0.00195572
-0.00280688
-0.00150115
-0.000752157
0.00147191
-0.000632061
0.000390063
-0.000760845
-4.19019e-05
-0.000729417
-0.00181981
0.000220383
-0.000708132
-0.000189337
-0.000325002
-0.000534127
-0.0008167
-0.00080455
0.00164847
0
-0.000540238
0.000672508
0.00176293
-0.00144229
-0.000486371
0.00148578
0.000767835
-0.00144504
-0.0011087
-0.0106236
-0.00160762
0.000320799
0.00135901
0.000614391
0.000574868
-0.000201152
0.000926914
-0.00029643
-0.000983899
-0.000691667
0.000774303
-0.00115647
-0.000218629
0.000745532
-0.000987512
0.00121668
0.000258531
-0.00241784
-0.00206062
0.000693148
-0.0018736
-0.0009052
0.00176446
0.00143703
0.00159022
0.00166104
0.000340681
0.0014237
0.00228449
0.00171671
1.17311e-05
-0.000544748
-0.000334347
0.000483574
0
0.000578143
-3.48798e-05
8.98141e-05
0.00100908
-0.000292197
0.000952835
0.000422916
-0.00130556
0.000215133
0.000533013
-0.000269165
0.000788728
-8.99942e-05
0.00074065
0.000395839
-0.00250231
0.000719719
-0.00194815
-0.00111047
-0.00142984
-0.00104566
0.00043064
0.00475718
-0.000713963
0
-0.00024787
5.94529e-05
0.000286689
-0.000583701
-0.00138575
0.000676932
-0.000404791
-0.000195454
0
0
-0.000569045
-0.00166992
-0.00157592
0.000319624
-0.00399493
-0.00071053
-0.000445332
-0.00242532
-0.00178061
-0.000447205
0.000930053
-0.000232618
0
0.00135179
-0.000636151
-0.000749082
-0.0021671
-0.00259018
-0.00092071
-0.0012669
1.06863e-05
0.000287578
2.17078e-05
-0.000640547
-0.000242873
0.00186767
0.00197155
0.0021645
-0.00298008
0.0010623
0.00141582
0.000353999
-0.000373989
-0.000273909
0.00432956
0.00267852
0.00469573
-0.000641487
0.00059114
-0.00145268
-0.00171922
-0.00095032
-0.000884846
-0.000350087
0.00125162
0.000351459
-0.000569435
-0.000497277
-0.000662687
0.0011034
-0.00157128
-0.00128404
-0.00123093
-0.00114275
-0.00213684
0.00148444
2.35634e-05
-0.000661171
-0.00204133
0.00211606
-0.000283785
-0.000617733
0.000747099
0.000327076
0.00157143
0.00198411
0.000528799
0
-0.000315722
-0.00192591
0.000802749
0.00110787
0.00196973
0.000529538
-0.00209472
0.000182099
0.000416238
-0.000203038
-0.00154041
0
0.00643027
-0.000941106
-0.000486746
0.00106175
-0.000986062
-0.00620043
0
0.00129033
-0.00191237
0.000220995
-0.00145564
0.00232175
0.000624982
-0.000681241
0.000173255
-0.000984055
0.00128245
0.00238982
-0.000372354
-0.00142774
-0.000661455
0.000451476
-0.000160857
-0.000450596
-0.00144211
0.00341219
0.000290637
-0.00179386
0.000969467
-0.00234178
0.0030492
-0.000369305
-0.000542642
0.00157241
-0.000391786
0.000245942
-0.000995551
0.000497263
-0.00017664
-0.00151928
0.00202065
-0.000282896
0.000969167
0.000772611
0.00102999
-0.000886111
0.00133967
0.00180073
0.000863728
-0.000628337
-0.00204078
-0.000526721
0.00117929
0.00138939
0.00265007
-0.000502573
0.000820699
-0.00037194
0.00100761
0.0012798
-0.0128127
7.64363e-05
0.00168538
0.00233414
0.000931975
0.000707591
0.00138884
0.000333684
0.000463912
-0.0010078
-0.00689419
0.00109242
-0.000557224
0.00221413
-0.000824277
0.000686537
1.86731e-05
0.00233332
-0.000634519
-0.00276435
0.000444177
-0.000441427
0.000436176
0.000760975
0.000506531
-0.000511207
0.00132481
0.00316234
0.000161084
0.00320536
0.00143934
-0.000570125
0.00187195
-0.00164909
-0.000441494
0.000621427
0.000456383
-0.00101602
-0.000382242
0.00155221
0.000315658
0.000458062
-0.000115582
0.000926291
0.000343047
-0.000924252
0.00243379
0
0.00171981
-0.000104663
-0.00258918
0
0.0012585
0.000874283
0.00270345
-0.000935395
0.000389061
0.00147575
0
0
-0.000548288
0.0018878
-0.000726528
-0.00044749
9.33667e-05
-0.00127415
0.0014544
0.0019773
-0.00114479
0.0020224
0.000247632
0.00024189
0.000591269
-0.00170296
-0.000524705
7.66787e-05
-0.000423416
-0.00084676
-0.000857713
-2.29792e-05
-0.000736306
-0.000651312
0.00192023
0.000926946
0.00318353
-0.00038234
-0.00104331
0.00202194
-2.57169e-05
-0.000185398
-0.000215515
-0.000812037
0.000555189
-0.000300552
0.00172845
-0.0019431
-0.00469195
0.000317194
0
-0.0027798
0.00351722
-0.00164826
-0.000417762
-0.00167726
0.00124977
-0.00062436
0.00116066
-0.000515739
-0.00248099
-0.000666266
0.00492435
0.00338071
0.00198017
-0.00167506
-0.00171335
-0.00270762
0.00210089
-0.00142894
-0.00106436
-7.58528e-05
-0.000109244
0.000450747
0.00102552
-0.00164179
0.000141242
-0.000173017
-0.000276312
0.00112772
-0.000294857
0.00118622
-0.00378893
-0.00151324
0.002727
0.00281271
0.00338621
0.00160457
0.000370861
0.00134379
-0.00211454
-0.000856328
-0.000461239
0.00319482
0.000922789
0.00107794
-0.000799957
-0.00136234
0.0050758
-0.00190584
-0.000404856
-0.00120471
-0.0020345
2.50626e-05
-0.00146394
-0.00293004
-0.00103698
0.00426097
0.00149803
0.000689949
-0.00136901
-0.00164771
-0.00179388
-0.00274305
0.00164118
-0.000576943
-0.000352923
0.0105083
-0.00217754
-0.00124451
-0.00192171
-0.000923259
0.0231196
-0.00133055
0.00049894
0.00121221
-3.34258e-05
0.002792
-0.000664177
-0.00460563
-0.00143125
0.00248772
-0.00106266
0.00160193
0.00296257
-0.00313469
0.00161335
-0.000537466
-0.000137949
0.00161022
0.00329396
-0.00295334
0.00158179
0.00207421
-0.00208824
0.000258183
-6.06317e-05
-0.00106749
0.00285278
0.000598543
0.000572894
-0.00439302
0.00170933
-0.00348168
-0.0036036
0.0034787
-0.000315772
-0.00237755
-0.00234534
0.000832548
0.00126526
0.00232655
6.56108e-06
0.00127765
-0.000111959
0.00187935
0.00533493
0.00319694
-0.000825136
0.000350132
-0.00333439
-0.0011693
-0.000511059
0.00157467
0.000342604
-0.00150541
-0.000234363
-0.000542804
-0.00225012
0
6.32883e-05
0.000294229
-0.0037522
0.000406417
-0.00212196
0.00123767
0.00017444
0.00282288
0.00218486
-0.00055525
-0.000759493
0.00193692
-0.00243225
-0.000698968
-0.000251671
-0.00317072
-0.000298821
0.00173865
0.000893719
-0.00204414
0
-0.00250738
-0.0012022
0.00060267
-0.000287346
0.00242458
-0.000526348
-0.00133844
7.42083e-05
0.00128953
0.00314136
-0.00321038
-0.00144184
0.00200437
0.00118329
-0.000797185
-0.00144359
0.000174676
0.000309877
-0.000741473
0.00192757
-0.00284458
-0.0012482
0.00188159
-0.00079917
-0.00416938
0.00362721
-0.00160728
-0.00172528
-0.000321601
-0.00175786
-0.00013769
0.00130109
-2.16232e-05
-0.00229377
-0.00133698
0.000598528
-3.92923e-05
-0.00182789
-0.000284412
-0.00229293
0.00163488
-0.000632747
0.0019221
0.00169649
-0.00205128
-0.000544081
-0.00223035
-0.000744757
0.00101333
0.000955358
-0.00212073
-0.00335652
7.32966e-05
0.000957447
-0.00146787
-0.00282085
0
0.000232492
0.0046088
-0.000649666
-0.00374628
-0.00013666
0.000914913
0.000988065
-0.00421691
-0.00161946
-0.00358494
0.00190156
0.000234455
-0.00227032
0.00307102
0.00316133
0.000952474
-0.000223007
-0.000864066
0.00297709
0.000491954
0.000444881
0.0029725
-0.00184008
0.000211301
0.00275503
-0.00147522
-0.000102878
-8.16654e-05
0.00059526
-0.000128008
-0.000106076
-0.00102115
-0.00228541
0.00435
0.0024062
-0.0036433
-0.002664
0.00330828
-0.00114946
0.00380553
-0.001559
-0.00125443
0.00148269
-0.00302938
-0.00148552
-0.00500364
0.00272233
-0.00213477
0.00248964
0.00126319
-0.000302419
-0.00116517
0.00559621
0.000872976
9.13105e-05
0.000865582
0.00439136
-0.00194834
0.00376167
-1.93541e-05
0.000366165
0.00213927
-0.0039855
-0.00122858
-0.000729777
-0.00255618
-0.00145639
-0.00247398
-0.000545812
-0.00040764
0.00193333
0.00219676
-0.000331016
-0.000273624
0.00017399
0.000568138
-0.00476966
0.000871048
-0.000745122
0.00216658
0.00401069
0.000692533
0.00186166
-0.00264775
-0.000169638
0.00114429
-0.000744471
0.000177578
-0.00170092
0.00146187
-0.00116364
0.000221349
0.00216862
0.000234156
0.00104184
0.000142776
0.00604184
0.000609841
0.000496829
-0.00428371
0.0035965
-0.00058605
-0.00282043
0.00184894
-0.00215852
0.000342265
0.00255081
-0.00293498
0.00175261
-3.88357e-05
-0.00174278
-0.000400543
-0.000101035
-0.0016296
0.000713526
0.0016038
-0.00100805
0.000709931
0.000690951
-0.00213959
0.00113606
5.55325e-05
0.00144112
0.000969684
0.000147065
-0.00278868
0.000608649
7.96887e-06
-0.0024361
-0.00254661
0.000849515
-0.00205874
-0.00243514
-0.00069801
-0.000623475
0.000253997
0.000357063
0.000431088
0.00330693
0.00161501
-0.00255578
-0.000191732
-0.00132879
-0.00230947
-0.000786816
0.00126673
-0.00210947
0.00162748
0.00114941
0.00142852
-0.000843624
-0.00101876
0.000188051
0.000127213
-0.00416799
-0.000502408
-1.71015e-05
-0.000680391
0.00283766
-0.000780596
3.16122e-05
0.00145723
0.00307174
0.0015645
0.000840718
-0.000137066
-0.00239224
0.000456492
0.00196472
0.000189662
0.000876585
-0.000953424
0.00112067
-0.00107047
0.00141265
0.000652375
-0.00249449
-0.00115292
-0.00229621
-0.00293912
-0.00662658
0
-0.000379473
-0.000670928
0.000108853
0.00244305
0
0.000859446
0.00321007
-0.000806307
-0.00297615
-0.000614785
0.00130332
-0.000262724
-0.00419298
0.00197642
-0.00266818
-0.0011122
0.00230407
-0.000412063
-0.0011389
-0.00256817
0.00134794
-0.000693592
0.00144908
0.00100914
0.00110246
-0.00344292
0.00310944
-0.00139375
0.00116563
0.000947936
0.00591864
0.00481063
-0.00319577
0.00128874
9.01227e-05
0.00130287
0.000274701
-8.85022e-05
0.000255414
-0.00387743
0.000414823
-0.00363008
-0.000938219
0.000613161
0.00477668
0.000887811
9.12777e-05
0.00184938
0
-0.00281672
0.00114489
-0.00396305
-0.00119121
0.00209567
3.2576e-05
0.00111833
0.00386584
0.000480109
0.00041077
-0.000248642
0.00106175
0.000826611
-0.00106951
-0.00102405
-0.00412103
0.00110021
-0.000833544
-0.000949312
-0.00113864
0.00171965
-0.00144831
0.00421005
-0.00293445
0.00380685
0
0.00088398
0.0022835
0.000518169
0.0012822
0.00221469
0.000185064
0.00441963
-0.000567377
0.00115163
-0.00462484
-0.00252624
0
0.00369627
-0.00295492
-0.00128779
-0.00107107
-0.00190249
0.00556944
-5.15763e-05
-0.00214506
-0.00265324
-0.00220688
0.000607662
0.00676182
-0.00149523
-0.000704258
-0.000698758
-1.23659e-06
0.00358364
0.000874832
0.000786817
-0.000523645
0.0025265
0.00305963
-0.00141367
-0.00253223
0.00171756
-0.00263141
0.000576755
0.00474382
0.000388259
-0.00141338
-0.00124088
0.000526496
0.00069091
9.86192e-05
-0.000117016
0.000715288
-0.000526942
0.0032248
0.000920471
0.000151092
0.000786315
-0.00231201
-0.00135306
0.00609532
-0.00388211
-0.0014883
-0.000440498
0.000760332
0.00258129
0.00243799
-0.00108905
-0.000775655
0.00308916
0.00227294
-0.00148875
0.00177747
0.000156008
-0.00378739
-0.00256737
0.00133979
-0.00252751
0.00249883
-0.00378186
0.00194684
-0.000883252
0.00157037
0.00221622
0
0.00293847
0.001727
0.000109124
-0.00524402
-0.000736292
-0.000786431
0.000262876
0.00182977
-0.00107917
2.3781e-05
-0.000217842
-0.00402573
-0.000612974
0.00139029
-0.00338259
-0.00303722
-0.0019439
0.00222521
-0.00205103
0.00132248
-0.00254877
0.00255487
0.00210986
0.00234072
-0.00056488
0.00381734
-0.00141057
0.000233199
-0.0017537
0.00200721
-0.00118309
-0.00010776
0.00069941
0.00076899
-0.0020008
0.00393878
-0.000752744
-0.00223204
-0.000382874
-0.00162455
-0.000374977
-0.00181227
-0.000550961
0.000254063
-0.00522431
0.00395318
-0.000962013
0.00155651
0.00036048
0.000298406
0.00948386
-0.00250438
0.00021097
0.000989274
0.00103954
-0.00331484
0.00119029
7.6117e-05
0.00149097
-0.00144863
0.000279332
0.00176864
-0.0019954
0.00161352
-0.000714522
0.00172608
-0.000911107
0.000401535
-0.00378178
0.0003082
0.00018807
0.00131841
-0.00155735
-0.000410435
-0.00412759
0.00487649
0.000854032
-0.00191023
-0.00157572
-0.000518082
-0.000785223
-0.00644347
0.00499337
-0.00233608
-0.000996757
0.00174731
0.00171097
-0.000643085
0.00106446
0.00096441
0.000342509
0.00296525
0.00262077
-0.000242701
0.00327573
-0.00303059
0
0.000811057
-0.000240372
0
-0.00135959
0.0025377
0.00199874
-7.93755e-05
0.00318655
-0.000102324
-0.0011865
-0.00122516
2.64891e-05
-0.00227754
-0.000610986
0.00337705
0.00024293
0.00316676
0.00173667
0.00183836
0.000855652
0.00245475
-0.000896519
-0.00134565
0.00162886
-0.000782806
0.00309098
-0.0017556
0.00092266
-0.000132125
0.00152411
-0.00180355
-0.00047867
-0.00174096
0.00204064
0.00160288
0
-0.00289829
-0.00329249
0.00012517
-0.000215259
-0.00129489
-0.000281621
-0.00472793
0.00274563
0.00041387
0.00269359
6.29004e-06
-0.000475673
-0.000579819
0.00262379
-0.000147513
0.00063499
0.000445918
0.00510419
-5.1103e-05
-0.00132581
0.00160401
0.000868979
-0.00198475
0.00612983
0.00202557
0.00119076
-0.000664277
0.00589097
0.000497487
0.000347981
0.00131805
0.00228193
0.000487029
-0.00139286
0.00131447
0.00449254
-0.00217996
0.00075828
0.000869683
-0.000786401
0.00129562
-0.00153755
0.000795563
0.000629159
0.00313269
0.000763519
-0.00376825
0.00124076
0.00229663
0.00369886
0.00256437
-0.000966295
0.00322482
0.00184317
0.0014687
-0.00042635
0.00179609
0.00255156
-0.000841774
0.00170865
0.00239466
0.00198935
-0.000786899
-0.00165131
0.000401017
0.00233727
0.00204743
0.000128166
-0.000341368
0.00263511
0.000667495
0.00104278
0.00106395
0.00106976
0.00149975
-0.00027561
-0.00271242
0.00229173
-0.000864888
0.00115589
-0.000927308
0.00205899
-0.00593158
0.000396339
0.00064528
0.00204753
0.000931254
0.00168501
0.00208136
-0.00189592
0
0.00154258
0.00444307
0.000735495
-0.000698314
-0.00161103
-0.00321695
7.85535e-05
0.0034324
0.000587862
-0.00192092
-0.00655371
-0.00257396
0.00450067
0.00313435
-0.000287178
-0.000899433
-0.00149207
-0.000303372
0.00253994
0.00146232
0.00193266
0.00021028
-0.00124466
0.00131905
-0.000847674
0.000692363
0.000426319
-0.0030592
-0.00093546
-0.00212914
0.000356272
-0.00241119
-0.00246925
0.0016619
-0.00146093
0.000609174
0.00511482
-0.00265852
-0.00157358
0.00015146
6.82864e-05
0.000985596
0.00067798
0.00150258
-0.000864689
0.000567629
0.000978213
6.321e-05
-0.00131939
-0.00185584
-0.00211516
0.000357388
0.00108072
-0.00720559
-0.00122607
0.00135497
0.000639572
-0.00182009
-0.00117413
0.000387269
-0.000613619
-0.0120692
0.00211774
-0.00325484
-0.000838391
-0.000588148
0.0017365
0.000534545
-2.15779e-05
0.000377498
0.00497675
0.000493096
-0.000418755
-0.00082694
-0.00157688
0.00104883
-0.000923336
-1.00062e-05
0.000970216
8.49212e-05
-0.00229082
-0.000767653
0.00146216
-0.00305298
-0.000242493
-0.00024105
-0.000521729
0
-0.000459994
-0.00131571
0.00481396
0
9.58055e-05
-0.00120153
0.00335143
-0.000835182
0.000627744
-0.00109739
-0.00479284
0.000310391
-0.000159178
0.00298433
-0.00120075
-0.00348043
-0.000555908
0.00084685
-0.00296608
0.00099268
-0.000627057
-0.0012606
-0.00211011
0.00107633
0.00360624
0.000524006
0.000640373
-0.0039662
0.00301362
-0.00264419
0.000613147
-0.00180623
-6.68408e-05
-0.000547894
0.00143047
0.000125171
-0.00173141
-0.000544842
-0.00213855
-0.00444781
-0.00200025
-0.00420254
-0.000997765
0.00362913
-8.6113e-05
0.000353249
-0.000112977
-0.000899191
-0.00250573
0.00416017
0.00105386
-0.00383526
-0.000736123
0.00358604
-0.00143376
-0.000103934
0.00273384
-0.00172682
-0.000118397
0.00159376
0.00676736
-0.00153952
-0.0067641
-0.00197783
0.00117381
-0.000126653
-0.000579192
0.00281319
-0.00235665
0.000496821
0.00176013
0.000255734
0.00133781
0.00081056
0.00312754
0.000834211
-0.00216695
0.00318182
-0.00370541
-0.00466913
0.00215213
-0.000948287
-0.000906919
-0.000128475
-0.00162668
0.00315254
-0.00054693
-0.000199287
0.00284574
0.000431768
-0.00220467
-0.00178372
-0.000516611
-0.00804742
0
-0.00117912
-0.00218223
0.00108834
0.00142486
-0.00134484
0.00611341
-4.13328e-05
-0.000587165
0.00553897
0.00196257
0.00281807
6.85871e-05
-0.000671419
0.000175891
0.000168927
0.000897568
-0.00586517
-0.00111605
0.000445807
0.00047707
-0.00185668
-0.000660958
-0.00348125
-0.000397516
0.000720374
-0.00126568
0.0023771
0.000151241
0.00138928
-0.00311674
-0.00138391
-0.00147748
0.00420703
0.000824241
0.0002374
-0.00410198
0.00146317
0.00166755
-0.00446203
0.00280488
0.00188716
-0.000396871
-0.00116938
-0.00086245
0.000807968
-0.00134684
0.00361473
0.000441954
0.00262847
0.00158136
-0.00104566
-0.000178296
0.00334317
-0.00347616
-0.000422437
0.000971395
-0.00306502
0.000190782
0.00362037
-0.00359892
-0.000806574
-0.00134102
-0.00143017
-0.000377314
0.000460488
0.000731115
0.000954483
0.00192492
0.00384446
-0.00173205
-0.00435701
-0.000796324
-0.00192028
0.000277238
0.00324412
-0.00200231
-0.000193834
0.000132066
-5.45072e-06
0.00124727
0.00161084
-0.00360309
0
0.00034273
0.00239458
-0.00184992
0.0046242
-0.00138163
-0.00463749
0.000350099
1.19102e-05
0.0017734
0.0023073
0.000648244
-0.00460247
0.000173657
0.00082086
-0.000601546
0.00195332
0.00602972
0.000706589
0.000737111
-0.00439134
0
-0.00391125
0.00103409
0.000570796
0.0010134
0.0204417
-0.0012342
0.000924665
0.000514677
-0.000821347
0.0003372
0.00011664
-0.00162842
-0.000945763
0.00404467
0.00246015
-0.0047809
-0.000337137
0.00257695
0.00122285
0.00105943
0.00313922
-0.0006968
0.000715378
0.00283466
-0.000720219
-0.000755745
0.000790786
0.000135407
-0.000268142
-0.00190545
0.000181624
0.000763493
-0.000339051
0.00655209
0.00393223
0.000106174
0.00299713
-0.000529933
-0.0038731
-0.000643138
-0.00103905
0.000222372
0.000922806
0.00632579
0.00401062
-0.000459021
0.000398048
-0.000956145
0.000762979
0.0180963
-0.00132409
0.0027314
-0.000159516
0.00229817
0.00258698
4.69879e-05
-0.00248359
-7.81067e-05
0.000398334
0.000439387
-0.000274443
0.00275222
0.00035711
-0.0010622
0.000456733
0.000708507
-0.0016062
0.0021083
-0.00230992
-0.00411206
0.000168526
-0.00112826
-0.00483287
-0.0040481
-0.001236
0.000517148
-0.00208149
-0.000337511
0.00122981
0.00180103
0.00273548
-0.00015633
-0.00186404
-0.00310223
0.00141097
-0.00172026
0.00164992
-0.00190933
0.0037536
-0.00291443
-0.00491916
-0.00258638
-0.00332201
0.00392405
0.000440165
-0.000608935
0.00449105
0.0013966
0.000720935
0.00164997
0.00693474
0
0.00341867
-0.000204557
0.00126304
-0.00692161
-0.000811136
0.00510266
-0.000475279
0
0.000127239
0.000418659
0.00317995
-0.00824861
-0.000264613