# vtk DataFile Version 2.0
Unstructured Grid by M++
ASCII
DATASET UNSTRUCTURED_GRID
POINTS 4072 float
  0.546875   0.656250 0
  0.546875   0.578125 0
  0.718750   0.625000 0
  0.656250   0.875000 0
  0.734375   0.609375 0
  0.671875   0.859375 0
  0.718750   0.609375 0
  0.656250   0.859375 0
  0.734375   0.593750 0
  0.671875   0.843750 0
  0.578125   0.984375 0
  0.640625   0.734375 0
  0.546875   0.593750 0
  0.593750   0.984375 0
  0.656250   0.734375 0
  0.640625   0.984375 0
  0.703125   0.734375 0
  0.546875   0.781250 0
  0.609375   0.531250 0
  0.546875   0.796875 0
  0.968750   0.531250 0
  0.609375   0.546875 0
  0.890625   0.984375 0
  0.953125   0.734375 0
  0.578125   0.593750 0
  0.515625   0.843750 0
  0.953125   0.625000 0
  0.890625   0.875000 0
  0.781250   0.578125 0
  0.718750   0.828125 0
  0.734375   0.812500 0
  0.640625   0.968750 0
  0.703125   0.718750 0
  0.671875   0.937500 0
  0.734375   0.687500 0
  0.671875   0.953125 0
  0.734375   0.703125 0
  0.656250   0.953125 0
  0.718750   0.703125 0
  0.656250   0.968750 0
  0.718750   0.718750 0
  0.578125   0.765625 0
  0.562500   0.765625 0
  0.578125   0.750000 0
  0.921875   0.953125 0
  0.984375   0.703125 0
  0.921875   0.937500 0
  0.984375   0.687500 0
  0.562500   0.953125 0
  0.578125   0.578125 0
  0.515625   0.828125 0
  0.562500   0.578125 0
  0.656250   0.937500 0
  0.718750   0.687500 0
  0.640625   0.937500 0
  0.703125   0.687500 0
  0.640625   0.953125 0
  0.703125   0.703125 0
  0.546875   0.765625 0
  0.609375   0.515625 0
  0.531250   0.765625 0
  0.593750   0.515625 0
  0.890625   0.937500 0
  0.953125   0.687500 0
  0.859375   0.750000 0
  0.796875   1.000000 0
  0.984375   0.734375 0
  0.921875   0.984375 0
  0.968750   0.734375 0
  0.906250   0.984375 0
  0.984375   0.718750 0
  0.921875   0.968750 0
  0.593750   0.546875 0
  0.531250   0.796875 0
  0.593750   0.531250 0
  0.531250   0.781250 0
  0.953125   0.515625 0
  0.578125   0.562500 0
  0.515625   0.812500 0
  0.578125   0.546875 0
  0.515625   0.796875 0
  0.593750   0.609375 0
  0.531250   0.859375 0
  0.578125   0.609375 0
  0.515625   0.859375 0
  0.859375   0.703125 0
  0.796875   0.953125 0
  0.828125   0.750000 0
  0.765625   1.000000 0
  0.828125   0.734375 0
  0.765625   0.984375 0
  0.921875   0.796875 0
  0.984375   0.546875 0
  0.562500   0.812500 0
  0.906250   0.796875 0
  0.921875   0.781250 0
  0.812500   0.765625 0
  0.750000   1.000000 0
  0.812500   0.750000 0
  0.859375   0.531250 0
  0.796875   0.781250 0
  0.796875   0.765625 0
  0.781250   0.781250 0
  0.875000   0.578125 0
  0.812500   0.828125 0
  0.937500   0.734375 0
  0.875000   0.984375 0
  0.765625   0.578125 0
  0.703125   0.828125 0
  0.781250   0.562500 0
  0.718750   0.812500 0
  0.750000   0.578125 0
  0.687500   0.828125 0
  0.765625   0.562500 0
  0.703125   0.812500 0
  0.625000   0.953125 0
  0.687500   0.703125 0
  0.609375   0.968750 0
  0.671875   0.718750 0
  0.609375   0.953125 0
  0.671875   0.703125 0
  0.625000   0.875000 0
  0.687500   0.625000 0
  0.609375   0.890625 0
  0.671875   0.640625 0
  0.625000   0.890625 0
  0.687500   0.640625 0
  0.609375   0.906250 0
  0.671875   0.656250 0
  0.937500   0.578125 0
  0.875000   0.828125 0
  0.921875   0.593750 0
  0.859375   0.843750 0
  0.921875   0.578125 0
  0.859375   0.828125 0
  0.937500   0.640625 0
  0.875000   0.890625 0
  0.562500   0.703125 0
  0.546875   0.718750 0
  0.546875   0.703125 0
  0.531250   0.718750 0
  0.906250   0.968750 0
  0.968750   0.718750 0
  0.906250   0.953125 0
  0.968750   0.703125 0
  0.906250   0.937500 0
  0.968750   0.687500 0
  0.890625   0.968750 0
  0.953125   0.718750 0
  0.890625   0.953125 0
  0.953125   0.703125 0
  0.593750   0.765625 0
  0.609375   0.750000 0
  0.593750   0.750000 0
  0.937500   0.953125 0
  0.843750   0.921875 0
  0.906250   0.671875 0
  0.828125   0.937500 0
  0.890625   0.687500 0
  0.546875   0.750000 0
  0.546875   0.734375 0
  0.531250   0.750000 0
  0.953125   0.671875 0
  0.890625   0.921875 0
  0.531250   0.671875 0
  0.515625   0.687500 0
  0.875000   0.921875 0
  0.937500   0.671875 0
  0.515625   0.937500 0
  0.859375   0.937500 0
  0.921875   0.687500 0
  0.859375   0.921875 0
  0.921875   0.671875 0
  0.843750   0.937500 0
  0.906250   0.687500 0
  0.921875   0.703125 0
  0.859375   0.953125 0
  0.937500   0.703125 0
  0.875000   0.953125 0
  0.937500   0.687500 0
  0.875000   0.937500 0
  0.828125   0.656250 0
  0.968750   0.593750 0
  0.968750   0.578125 0
  0.906250   0.812500 0
  0.953125   0.593750 0
  0.953125   0.578125 0
  0.875000   0.843750 0
  0.937500   0.593750 0
  0.953125   0.656250 0
  0.531250   0.921875 0
  0.890625   0.906250 0
  0.953125   0.640625 0
  0.890625   0.890625 0
  0.937500   0.656250 0
  0.875000   0.906250 0
  0.718750   0.593750 0
  0.656250   0.843750 0
  0.734375   0.578125 0
  0.671875   0.828125 0
  0.718750   0.578125 0
  0.656250   0.828125 0
  0.734375   0.562500 0
  0.671875   0.812500 0
  0.578125   0.890625 0
  0.640625   0.640625 0
  0.593750   0.890625 0
  0.656250   0.640625 0
  0.578125   0.906250 0
  0.640625   0.656250 0
  0.578125   0.953125 0
  0.640625   0.703125 0
  0.593750   0.953125 0
  0.656250   0.703125 0
  0.578125   0.968750 0
  1.000000   0.703125 0
  0.640625   0.718750 0
  0.593750   0.968750 0
  0.656250   0.718750 0
  0.734375   0.515625 0
  0.671875   0.765625 0
  0.968750   0.765625 0
  0.984375   0.750000 0
  0.843750   0.750000 0
  0.781250   1.000000 0
  0.859375   0.734375 0
  0.796875   0.984375 0
  0.843750   0.734375 0
  0.781250   0.984375 0
  0.859375   0.718750 0
  0.796875   0.968750 0
  0.843750   0.718750 0
  0.781250   0.968750 0
  0.828125   0.640625 0
  0.765625   0.875000 0
  0.828125   0.625000 0
  0.875000   0.546875 0
  0.812500   0.796875 0
  0.812500   0.781250 0
  0.796875   0.796875 0
  0.875000   0.609375 0
  0.812500   0.859375 0
  0.968750   0.796875 0
  0.546875   0.687500 0
  0.546875   0.671875 0
  0.531250   0.687500 0
  0.984375   0.796875 0
  1.000000   0.796875 0
  0.562500   0.796875 0
  0.578125   0.781250 0
  0.625000   0.531250 0
  0.562500   0.781250 0
  0.578125   0.640625 0
  0.515625   0.890625 0
  0.562500   0.640625 0
  0.578125   0.625000 0
  0.515625   0.875000 0
  0.875000   0.703125 0
  0.812500   0.953125 0
  0.750000   0.609375 0
  0.687500   0.859375 0
  0.765625   0.593750 0
  0.703125   0.843750 0
  0.750000   0.593750 0
  0.687500   0.843750 0
  0.625000   0.984375 0
  0.687500   0.734375 0
  0.625000   0.968750 0
  0.687500   0.718750 0
  0.609375   1.000000 0
  0.671875   0.750000 0
  0.609375   0.984375 0
  0.671875   0.734375 0
  0.625000   0.906250 0
  0.687500   0.656250 0
  0.609375   0.921875 0
  0.671875   0.671875 0
  0.625000   0.921875 0
  0.687500   0.671875 0
  0.609375   0.937500 0
  0.671875   0.687500 0
  0.625000   0.937500 0
  0.687500   0.687500 0
  0.968750   0.656250 0
  0.906250   0.906250 0
  0.984375   0.640625 0
  0.921875   0.890625 0
  0.968750   0.640625 0
  0.906250   0.890625 0
  0.984375   0.625000 0
  0.921875   0.875000 0
  0.968750   0.625000 0
  0.906250   0.875000 0
  0.953125   0.765625 0
  0.906250   1.000000 0
  0.968750   0.750000 0
  0.937500   0.765625 0
  0.953125   0.750000 0
  0.953125   0.796875 0
  0.937500   0.796875 0
  0.953125   0.781250 0
  1.000000   0.531250 0
  0.937500   0.781250 0
  0.984375   1.000000 0
  1.000000   1.000000 0
  1.000000   0.984375 0
  0.890625   0.765625 0
  0.718750   0.515625 0
  0.656250   0.765625 0
  0.890625   0.796875 0
  0.890625   0.781250 0
  0.562500   0.671875 0
  0.921875   0.656250 0
  0.578125   0.656250 0
  0.515625   0.906250 0
  0.562500   0.656250 0
  0.890625   0.750000 0
  0.828125   1.000000 0
  0.875000   0.734375 0
  0.812500   0.984375 0
  0.546875   0.968750 0
  0.625000   0.718750 0
  0.171875   0.656250 0
  0.750000   0.046875 0
  0.062500   0.609375 0
  0.046875   0.609375 0
  0.734375   0.031250 0
  0.046875   0.593750 0
  0.718750   0.125000 0
  0.703125   0.109375 0
  0.687500   0.125000 0
  0.500000   0.937500 0
  0.437500   0.765625 0
  0.359375   0.625000 0
  0.296875   0.875000 0
  0.343750   0.609375 0
  0.281250   0.859375 0
  0.250000   0.515625 0
  0.484375   0.531250 0
  0.468750   0.515625 0
  0.468750   0.656250 0
  0.453125   0.671875 0
  0.031250   0.937500 0
  0.390625   0.921875 0
  0.250000   0.968750 0
  0.765625   0.234375 0
  0.750000   0.093750 0
  0.750000   0.078125 0
  0.000000   0.515625 0
  0.500000   0.765625 0
  0.328125   0.718750 0
  0.343750   0.703125 0
  0.328125   0.687500 0
  0.312500   0.703125 0
  0.343750   0.781250 0
  0.406250   0.531250 0
  0.015625   0.531250 0
  0.062500   0.593750 0
  0.750000   0.015625 0
  0.062500   0.578125 0
  0.046875   0.578125 0
  0.734375   0.000000 0
  0.296875   0.687500 0
  0.484375   0.843750 0
  0.031250   0.593750 0
  0.718750   0.015625 0
  0.031250   0.578125 0
  0.468750   0.828125 0
  0.703125   0.000000 0
  0.750000   0.234375 0
  0.453125   0.750000 0
  0.218750   0.687500 0
  0.421875   1.000000 0
  0.000000   0.218750 0
  0.484375   0.750000 0
  0.468750   0.765625 0
  0.468750   0.875000 0
  0.046875   0.093750 0
  0.296875   0.781250 0
  0.437500   0.984375 0
  0.015625   0.203125 0
  0.500000   0.796875 0
  0.078125   0.015625 0
  0.484375   0.875000 0
  0.484375   1.000000 0
  0.062500   0.218750 0
  0.468750   0.859375 0
  0.484375   0.781250 0
  0.062500   0.000000 0
  0.484375   0.921875 0
  0.062500   0.140625 0
  0.453125   1.000000 0
  0.031250   0.218750 0
  0.312500   0.562500 0
  0.250000   0.812500 0
  0.468750   0.937500 0
  0.046875   0.156250 0
  0.343750   0.593750 0
  0.375000   0.562500 0
  0.312500   0.812500 0
  0.203125   0.671875 0
  1.000000   0.234375 0
  0.375000   0.593750 0
  0.312500   0.796875 0
  0.484375   0.890625 0
  0.062500   0.109375 0
  0.296875   0.796875 0
  0.187500   0.656250 0
  0.984375   0.218750 0
  0.359375   0.546875 0
  0.375000   0.625000 0
  0.359375   0.609375 0
[...]
POINT_DATA 4072
SCALARS scalar_value float 1
LOOKUP_TABLE default
-0.0646765
-0.00986916
0.0169603
0.0170942
0.0300782
0.0046763
-0.00987532
-0.00305361
-0.0138961
0.0142077
-0.0183957
-0.003754
-0.0336157
0.0113406
0.0149461
0.00654346
-0.00940685
-0.00604239
-0.0199491
0.0174013
-0.00093881
-0.00196294
-0.000539368
0.0160616
0.0761227
-0.00232484
0.00931731
0.0117405
-0.00325904
-0.00230765
0.00185419
-0.00494607
0.00372016
0.00305781
0.00877115
0.0014066
0.00206244
0.00107125
0.00254812
0.00293808
-0.00576868
-0.00353761
0.0232786
-0.0202084
0.00250794
0.00706821
0.00392359
-0.00325168
0.00696285
0.140178
0.016097
0.05955
0.00027781
-0.00485353
0.000692051
0.00405917
0.000325669
-0.00128778
0.0038369
0.0114078
0.0106975
0.207791
0.00119338
-0.00301753
0.00981114
0
0.00353365
0.000521341
-0.0229738
-0.000843298
-0.00255752
-0.00488623
0.176205
-0.00236064
0.164908
-0.0121337
-0.00144338
0.136471
-0.0212215
0.181889
0.0261933
0.134334
0.000983141
0.0546402
0.00725257
0.017231
0.0088038
0.00773574
0
-0.0101078
-0.000317853
-0.0197441
0.00093138
0.0111261
0.0165631
0.00565996
0.00761284
0
-0.00956128
-0.00272956
0.00192042
-0.00363083
-0.0181921
-0.00501272
0.00841052
-0.0094072
-0.0124834
0.000868518
-0.0087833
0.00572177
0.00578477
-0.00563295
0.00571585
-0.00548559
-0.00558678
-0.00245883
0.00368015
-0.0117668
0.0131813
-0.00197083
-0.00428046
0.0136595
-0.00356618
-0.00484876
0.00975675
0.00387118
0.0190617
-0.00865947
-0.00555572
-0.000923882
-0.00104519
0.0126854
0.00844716
0.0159637
0.000770118
-0.0053649
0.00529694
-0.0128418
0.0126118
-0.00450106
-0.00233448
0.00498097
0.00252551
-0.00566368
-0.0156172
0.00760024
-0.00289532
0.00516603
-0.00805788
0.00285942
0.0169338
0.0145249
-0.00399429
-0.0351956
-0.00799028
0.00385987
-0.0119806
0.00332555
-0.00711037
0.0103741
-0.00904905
-0.0152036
0.0135602
0.0065003
0.0285243
-0.00893502
-0.00750902
-0.00811586
0.0123656
0.00227243
-0.0077669
0.00898568
0.0125295
-0.00820492
0.00844799
0.0153205
0.00539203
-0.00988042
-0.00763978
0.00797738
-0.00588758
-0.018169
-0.00593603
-0.00124876
0.0475651
0.00971082
0.0047562
0.0017395
-0.0122388
0.00339394
-0.00935428
0.00884267
0.00910612
0.00692355
0.00224608
-0.00909814
0.0224764
-0.00347512
0.0270858
-0.004801
0.0117829
0.0170167
-0.000241773
0.0114191
-0.0104367
0.00109973
0.00605533
0.032029
-0.00680564
-0.0313883
-0.00164767
-0.00788082
0.00219445
0.0133735
-0.0102357
-0.0177551
0.0177386
0.00980047
-0.0224588
0.0387526
0.00266273
-0.0244205
-0.00164942
-0.0108153
0
-0.00146073
0.0145014
0.00830593
-0.00515398
-0.00478537
-0.00169139
-0.00127317
0.00945839
0.00516543
-0.00630164
-0.00982493
-0.004507
0.00769738
-0.00455349
-0.0102961
-0.00390673
-0.000266351
-0.0151009
0.0079795
-0.0528714
0.00860533
-0.00667624
-0.0173232
0.00506515
0.00910922
0.198911
-0.0185555
-0.0299609
0.0167466
0.0365605
0.0385033
-0.00769635
-0.018578
-0.00536342
-0.0242678
-0.00395399
-0.00817059
0.0100324
0.00980184
-0.0161206
-0.000807471
0.0194012
0.0113738
-0.00208638
0
0.0161188
-0.00997428
-0.01944
0.0025732
-0.00807797
-0.00543707
0.00560177
0.00655213
0.00951948
-0.0131634
-0.00655802
0.00720794
0.00393464
-0.00594877
-0.00536765
0.00328697
-0.00655904
-0.00520312
0.0129688
0.00539494
0.0120718
-0.00846185
-0.0269463
0.00511331
0
0.00814269
-0.00331441
-0.00493029
-0.0064046
-0.00212153
0.00891672
0.0011161
0.00191873
0
0
-0.0105544
0.00469034
0.0515389
-0.0111838
-0.00334418
0.0308917
0.0428037
-0.00216158
0.00120653
-0.00738728
0.109432
0.0142269
0
-0.00635536
0.00261923
0.0121472
-0.021253
-0.00373644
-0.00219575
-0.00353536
0.000433436
-0.0111181
0.00266272
0.0865188
0.0775637
-0.0209331
-0.00834423
-0.0189166
-0.0143435
0.00104661
0.0171145
0.0115348
0.0026795
0.0383032
0.0658702
-0.0055986
0.00115014
-0.00573431
-0.00821895
0.0032297
-0.00449906
-0.00540171
-0.00477546
0.000540591
-0.0216709
-0.0120513
-0.00229598
0.0028536
0.00363025
0.00249272
0.31133
-0.00256643
-0.00534917
0.000146125
-0.00356563
0.00187467
-0.0130456
0.000627343
0.0344824
0.00121216
0.0308171
-0.000686471
-0.00924233
0.0327991
-0.00483328
-0.0201539
0.0150998
0
0.000584697
0.0104512
-0.00266834
-0.01964
0.000149741
-0.00684505
0.00205133
-0.000391799
-0.0125262
3.08463e-05
0.0264258
0
-0.00447673
0.0192119
0.00435705
0.000285023
0.0188868
-0.0011584
0
-7.55205e-06
0.0398715
0.0037389
0.00382987
0.000212968
0.0441139
0.0555367
-0.00646253
0.0214379
0.00237762
0.0503397
0.00455272
0.00875605
-0.000166209
-0.00671083
-0.00155012
-0.00183747
0.0039276
0.0217794
0.00509463
-8.95532e-05
-0.0054977
0.0072055
0.000245687
0.00228724
-0.00429978
0.000178087
0.00349907
0.0263028
0.000740264
0.106228
0.0107791
0.00129126
0.00124295
-0.00267287
-0.0266517
-0.0141894
-6.67634e-05
-0.00187049
0.01305
-0.0125549
0.078695
0.00487601
0.00728411
6.02462e-05
0.121159
-0.00475581
0.00703508
-0.000480841
0.00380519
0.0500956
0.00238074
0.00706728
-0.00210811
0.0611725
-0.0368016
-0.0262536
-0.00564372
-0.0162203
-0.000109735
-0.0373328
-0.00243287
-0.00942733
0.292156
0.00394405
0.00913442
0.00121065
0.00310614
-0.00161083
-0.00177826
0.137557
0.0798008
-0.0016994
-0.00160499
0.0624355
-0.00454035
0.00463209
4.62117e-05
-0.000222587
-0.0119338
0.0135236
-0.00505252
0.002487
0.00844855
-0.000890558
0.0107768
0.00535743
9.38853e-05
-0.000328608
0.0118789
-9.28219e-05
0.00481147
0.00210198
0.000533767
-0.00178197
-0.000610539
-0.0256711
-0.0018805
0.00411881
-0.000686131
0
0.00986016
-0.0392773
-0.00932721
0
-0.00183074
-0.000270839
0.00155449
-0.002754
-0.00279493
0.00113391
0
0
-0.00763296
9.61157e-05
0.0128348
-0.00257664
0.0545823
0.00485084
2.97258e-05
0.000966424
0.08783
-0.000822627
-0.000409579
0.0115097
-0.0121753
-0.00352079
-0.00430395
-0.00652774
-0.000871061
0.112317
-0.00347221
-0.00772854
0.00473189
0.0759618
0.000965222
0.00793534
-0.00682393
-0.000167034
-0.00461294
-0.0121739
0.00157343
0.0531963
0.000290337
-0.000773388
-0.00253069
-0.00490527
-0.0159926
0.00307154
0.435965
-0.0133997
0
-0.0277403
0.00988722
-0.0132668
0.139047
0.170193
0.000340555
0.200788
-0.00101243
0.00808979
0.208908
0.000401274
0.0579258
0.0267814
0.035281
-0.00304912
0.00214688
0.146055
0.0520231
-0.0106397
0.00924217
-0.0203935
0.0353184
0.000818776
0.00760755
0.17475
-0.00876785
0.00212827
0.391028
-0.00417342
0.000315315
0.00252636
0.0255764
-0.00030417
0.0261238
0.0241728
-0.000648063
0.00270941
-0.00814476
-0.00039364
-0.00918186
-0.00375954
-0.0108408
0.0406003
-0.00448641
0.0139446
2.62893e-06
-0.00489621
-0.0159595
-0.00452835
0.171023
-0.00707319
0.199966
0.0897613
-0.00763786
-2.15238e-05
-0.000305895
-0.00465718
-0.00876113
-0.00312061
-0.0165136
0.0137248
0.242068
0.213037
0.00185805
-0.00132758
0.1002
0.0178793
0.0174626
-5.89717e-05
0.229845
4.66256e-05
-0.0278955
-0.000369305
0.000930623
0.00200207
-0.000944349
0.00849772
8.18391e-05
0.000314723
-0.000563166
0.025118
-0.0191059
-0.00838485
0.474912
0.0275706
0.00486484
-0.00885118
-0.000734303
0.0229123
0.00213574
0.00238309
-0.00528253
-0.0247807
0.0862814
0.00397852
-0.0114803
-0.0043222
0.00106607
0.00183372
0.00072759
0.000645041
0.00127563
0.0029063
0.00344897
0.227417
0.0089635
0.000235289
-0.00104625
-0.00666049
0.00412955
0.00583162
-0.000416086
0.00733702
0.0597644
0.016407
-0.00742251
0.00371265
0.000136374
-0.012974
0.000829376
2.72736e-05
-0.00227458
-0.00408518
-0.0104629
-0.00457439
0.135042
-0.010413
-0.003565
0
0.064711
0.0684181
-0.111182
-0.00686757
0.182412
-0.0105636
-0.000203065
0.00844651
0.0136525
-0.00851786
-0.00438939
0.0908886
-0.014152
-0.00184339
0.000407455
0.00415951
-0.00782971
0.00203766
0.0044067
-0.00302973
0
0.130384
-0.00264457
-0.00258843
-0.00962011
-0.00019566
0.00564139
-0.00177494
0.0021133
0.0094187
0.0202605
0.00302929
0.00624966
0.149523
0.00426437
0.000650785
-0.00672983
-0.0100148
0.00297778
0.0121958
0.0016256
0.00673981
-0.0088735
-0.0158486
0.173536
0.16014
-0.00484588
-0.000270202
0.0148222
0.00319442
0.252577
0.00026727
-0.00771849
0.0298976
0.0782455
-0.00956283
0.016637
-0.00935176
-0.00429093
-0.000247451
0.0694098
-0.00116815
-0.000114849
-0.0139324
-0.00422218
-0.000145431
0.00981759
0.0612974
-0.0190908
0.0107865
-0.00496424
0.0535105
0.250674
-0.00161187
0.149829
0.105123
0.186627
0
-0.00414947
0.139378
-0.00371347
0.107599
-0.00135438
0.0152379
-0.000134936
0.265845
0.000215649
-0.00250225
6.13314e-05
-0.00171941
0.000306638
-0.00500961
0.00163889
-0.000237051
0.0135967
0.000345324
0.0113812
0.197528
-0.00184011
-0.00426431
-0.000216133
-0.0174654
0.00238547
0.232338
0.000205389
-0.000776088
0.00322277
0.000243419
-0.00429697
-0.000133858
-0.000323006
-0.00115571
0.00116935
0.00589079
-0.000355762
0.00871827
0.00295562
0.136297
0.137593
0.000414837
0.0117566
0.00324742
0.0113538
0.013195
0.0255774
0.282192
0.023734
-0.00265562
-3.12023e-06
0.269204
-0.00426616
-0.0636182
0.198298
-0.0185208
0.0286837
0.0162182
-0.004311
0.00204314
0.188602
0.0242305
-0.0187064
0.000595111
0.171062
-0.0469596
0.00842712
0.229031
0.0280501
-0.0475091
-0.00733491
0.269776
0.0101377
-0.0429178
-0.00520224
0.0112168
0.0693693
0.0261342
-0.00874894
-0.0224643
-0.0794841
-0.0111347
-0.000411771
0.0250595
0.000455975
-0.00149997
-0.00778665
0.00380268
0.00612174
0.0189499
-0.00999803
-0.00626519
0.000933092
0.0015959
-0.000194828
-0.0047921
0.00261925
-0.00737317
0.221565
0.213372
0.272064
0.118719
0.141307
-0.00117988
-0.000910025
0.211934
0.0749604
0.21171
0.099899
0.00339139
0.00369475
0.239616
0.042507
-0.05719
-0.00450388
0.212568
-0.0548526
-0.00394774
0.00343206
0.212888
0.0132874
-0.0392108
-0.00587213
0.271577
0.00917613
0.00293192
0.00186571
-0.0395324
0.00722428
-0.00100501
0.000845242
0.00632094
-0.000840458
0.00267036
0.000216561
0.00041583
0.0019982
0.000330532
-0.00594951
0.00208807
0.00498202
-0.000155879
0.00195766
0.0650153
-0.00692828
0.0153007
-0.0130422
0.00133585
0.0393565
0.0569077
-0.00595732
-0.0067982
0.000792835
0.00225965
-0.00477768
0.00195235
-0.00120462
-0.00163392
-0.00205725
-0.0093693
0.352914
0.202014
6.76527e-05
-2.99286e-05
0.00527411
0.00599149
0.0634821
0.00656563
0.026887
0.0390514
-0.00523445
-0.00473966
0.050659
-0.00394214
-0.0032149
0.0144276
0.00358781
-0.0103476
0.00837225
0.00362973
-0.00653198
0
0.00436734
0.107334
0.00443638
-0.0617961
0
-0.000302841
0.0879121
0.00412897
0.25824
0.0911045
-0.0200161
0.00108844
0.0049054
0.00196491
0.000726929
-0.000479379
-0.00012486
-4.4337e-05
0.0182991
0.000657048
0.000324298
-0.00257039
-0.000706545
0.0137095
-0.000130989
0.158491
0.00774095
0.0164925
0.00029678
-0.0321788
-0.00552948
-0.0636335
0.148337
0.00794558
0.0096969
-8.92402e-05
0.0343565
0.0360821
-0.0098863
-0.14222
-0.0100974
0.0249211
-0.0105544
0.270457
-0.00150723
0.000441543
0.00715205
0.00493101
0
-0.00184577
-0.00136405
0.00132295
-0.00683146
-0.000919944
0.0370547
0.000315647
-0.00496244
0.00699675
0.000532772
0.00290701
-5.5095e-06
0.00383528
0.276688
0.00201451
0.0618002
0.00343465
6.60403e-05
0.271872
0.0113046
0.102369
0.00285143
0.238043
0.13871
0.252693
0
0.00226706
0.00250198
0.0127614
-0.0233075
0.00293901
-0.0101209
0.102865
0.00440606
0.00285491
0.314069
0.149022
0
0.199006
0.121584
0.00848684
-0.00129709
-0.000282255
-0.00194393
0.000179581
0.00409391
0.000685548
-8.8854e-05
-0.00163372
-0.00434871
-0.000255705
-0.00031433
0.205371
0.000156863
0.0013486
-0.000153528
-0.00481041
-0.0117068
0.048305
-0.0118426
0.00235827
0.056235
0.0461874
0.0496002
-0.00291122
0.0835457
0.0298661
5.9348e-05
-0.002489
0.0255329
-0.00341087
-0.00985262
0.205228
0.166269
-0.000658149
0.292546
0.204801
0.22101
0.184728
-0.00969201
2.54615e-05
-0.0266449
0.0108185
-0.0057271
-0.00369079
0.130066
-0.0744203
0.0722383
-0.0386745
-0.0105015
-0.00239089
0.000941848
0.134648
0.13267
-0.0331474
0.00138997
0.0194145
-0.0052606
-0.00145612
0.0629752
-0.0224508
0.109856
0.0392175
-0.00333121
-0.000285446
0
0.0614076
0.0144466
0.204566
0.000965172
0.000253611
0.0038272
-0.00556664
0.114986
0.192819
0.0216448
0.000731148
-0.000849971
-0.000239013
0.0063973
0.00197334
0.0182421
0.000743224
0.0955215
0.00479593
-0.0134749
-0.00760527
0.00243513
-0.00125575
0.0968964
0.179468
0.0552683
0.0070039
0.222046
0.245054
0.000221112
0.0214883
0.0154403
0.00056227
-0.00808304
-0.00327049
-0.00226526
0.0837212
0.00110138
0.017502
0.160782
0.00355372
-0.0289407
0.00579106
-0.00446493
-0.00341337
-0.0294281
0.148137
-0.000377716
0.151331
-0.00496498
0.0132574
-0.00249803
-0.00389186
-0.00677656
0.00188618
0.000801507
0.225142
0.0877054
0.0138015
0.11996
0.00428798
0.140924
-0.00756877
-0.001071
0.00730944
-0.000429727
-0.0107912
-0.00520652
-0.00037136
0.00203702
-0.00328715
0.137649
0.08906
0.0126349
0.0148535
0.0124389
-0.0003272
-0.000675377
0.0109452
0.000679278
6.44359e-05
0.00648571
0.00652136
0.00415271
0.000389218
-0.000831563
0.157762
0.124005
-0.000268998
-0.000195466
-0.0186099
-0.0145326
0.0713236
0.0220264
0.302924
0.000204237
0
0.180436
0.154539
0
-0.0335146
0.0538024
-0.0450751
0.154577
0.152436
-0.00951819
0.0125826
-0.00900068
-0.00833123
0.0882144
-0.0125348
0.0714569
0.00107946
0.176589
0.107836
-0.00802446
0.154428
0.00951316
0.00886101
-0.00306868
0.0153023
0.189236
-0.0252205
0.0590974
0.0993303
0.169413
0.16516
0.307796
0.0680702
0.00427016
0.000529932
0.196442
0
0.349638
0.206063
0.0321199
-0.00395955
0.00777684
0.0120075
-0.0196201
0.0247559
-0.0252748
0.0306482
0.00652716
-0.0268132
-0.0283595
0.0380407
-0.00125769
0.000159215
0.030793
-0.000991595
0.071899
0.000292683
0.000650054
-0.000281534
-0.00217208
0.00671537
0.252913
-0.000171379
0.00801346
0.00972087
0.00366695
0.196024
0.000321085
0.123744
0.203503
0.0624013
0.0708113
0.036829
0.00398001
0.275489
0.00452293
-0.000120865
0.265433
0.140852
-0.0149562
0.0104471
0.047355
0.027212
0.199785
-0.015527
0.0413323
0.294054
0.0563401
-0.00495998
0.30069
0.226564
0.0146368
0.0124975
0.246016
-0.00268359
0.000251046
0.0216052
0.238371
0.0298163
0.00203689
0.273094
-0.018341
0.0130105
-0.0171293
0.00118837
-0.0137407
-0.0706672
-0.00668291
-0.0168486
-0.00736751
-0.000181114
-0.00652335
0.0048757
0.0583258
0.00873365
-0.00993666
-0.0156421
-0.0100901
-0.012987
0.00459263
-0.000426568
-0.037363
-0.00833306
-0.0132917
-0.012379
0.00176265
0.00809577
0
-0.00155696
-0.00485824
0.000254607
0.00369337
-0.00521489
0.181135
0.00876141
0.0405458
0.000551299
0.0136261
0.18729
0.211393
0.00103406
-0.000795146
0.00119225
0.0107678
-0.00475384
-0.00628054
0.000177162
0.30642
-0.00926588
-0.000723854
-0.00289399
0.00135301
-0.00448089
-0.00509597
-0.000341552
-0.000387862
0.00890924
-0.000757567
0.0172403
0.331722
5.93935e-05
-0.0018895
-0.0003754
0.0109373
0.116563
-0.00299995
-0.000508891
0.0433914
0.0127396
-0.0150194
0.0109456
-0.00641592
-0.0142795
-0.0105944
-0.0120019
-0.00108398
-0.00242523
-0.00139055
0.0808409
-0.00859737
-0.000487875
-0.0401192
0.122031
-0.0031963
0.00657168
0.178523
0.00755507
-0.000411515
-0.00188408
0.00373486
-0.00230543
0.206048
-0.000311188
-0.00309318
-0.00504392
0.0527177
-0.00317918
0.00850321
-0.0041422
0.000623091
-0.0204012
-0.0197139
0.195455
-0.00615992
0.130999
-0.00300505
0.00407506
0.00326143
0.32638
-0.000161119
0.222167
0.0392803
0.0542443
-0.0124685
-0.016861
0
-0.000871658
0.120714
0.00752597
0
-0.000181518
-0.0014186
0.00631618
0.00314956
-0.00935388
0.131651
0.0116018
-0.0128966
0.00314202
-0.0154905
0.106064
0.0605316
-0.00191165
-0.00358958
-0.0174898
0.00145714
-0.00865923
0.0570583
0.281843
0.000439593
0.0186064
-0.00177085
-0.00682034
-0.00135552
-0.00154919
0.00408425
-0.000162218
-0.000434559
0.00480107
0.138868
-0.00284805
0.00157889
0.101083
0.00382985
0.011119
0.00200721
-0.00390938
-0.00367978
-0.0107192
0.00281091
0.0236745
-0.00846927
0.160143
0.0144317
0.00982278
0.0097594
0.00793301
0.00176983
0.00331136
0.00794929
0.00254429
-0.0143836
0.199917
0.00234019
0.0016593
0.00693802
-0.0056982
0.0165634
0.00249572
-0.00686858
0.000282188
-0.0202303
0.223278
-0.00159503
-0.000536085
0.000300162
0.00151649
0.00623628
0.000596454
-0.0121141
0.0235189
-0.00150375
-2.78201e-05
-0.00369149
-0.000915848
-0.00165345
0.0117289
-0.000220447
0.0208464
4.44541e-05
0.248339
0.0231189
9.49749e-05
6.18872e-05
-0.00115268
-0.0002652
0.00476734
0.0044976
0.00295842
-0.00862789
0
0.0720308
0.278284
-0.0194133
-0.00103193
-0.00765388
0.0505003
0.0420641
0.00976529
0.00270531
-0.00981693
0.00440002
-0.00399165
0.0184534
0.0474798
-0.00438295
0.00398275
0.00836199
-0.00225994
0.0545101
0.00439825
0.00858814
0.00520732
0.00174134
-0.000590124
0.000301542
0.000788233
0.0831448
0.0207431
0.145924
0.0452438
-0.0143526
0.0375033
0.133737
-0.0024622
-0.00237008
0.000308667
0.000197364
0.023405
0.227972
-0.00861239
-0.000768189
0.183601
0.000740206
0.00949983
-0.00331096
-0.00315345
0.00297646
-0.00173182
0.00716536
0.0043166
7.99274e-05
0.000320366
-0.000922908
-0.000428206
0.000137122
-0.000333234
-0.00557192
0.310883
0.0333348
0.191032
0.0692965
-0.000671279
-0.00402079
0.00724874
0.0631303
0.021146
-0.0101062
-0.00842724
0.000683979
-0.000388395
0.0030383
-0.00226883
0.0908875
0.00496678
-0.0470427
0.0472003
0.00421376
0.0123514
-0.00121126
0.00185289
0.0211346
0.0953203
0
0.125254
0.0065987
0.182954
-0.0256777
0.0218761
-0.00183159
-0.00201988
0.0205765
5.09339e-05
0.00537551
-0.000172928
0.141533
0.00571507
0.0216927
8.09019e-05
0.000152205
0.0136327
-0.0136152
0.107311
-0.00759122
0
0.206881
-0.00200783
0.00346937
-0.00608537
-0.0127365
0.0079743
0.000135855
0.00153192
0.0135386
0.0160447
-0.00532022
0.20196
0.000412985
0.00242126
0.00634646
-0.0627408
0.0481393
0.0456601
-0.000142908
-0.0127452
0.0101572
0.00331263
-0.0190817
0.000811111
2.64115e-05
-0.0113652
-0.00208647
0.00660202
-0.00662022
0.0167486
0.0507611
-0.00239241
0.00108022
-0.00169889
0.00543781
0.218104
0.223224
0.0209878
0.134765
-0.00248835
0.101772
-0.015127
-0.0647767
-0.00562809
0.103677
0.0124166
-0.0305415
0.00360624
-0.000419894
-0.127442
-0.0280003
0.0193441
-0.006836
0.00362516
0.0013844
0.00390723
-0.00667308
-0.000731374
0.00997386
0.0134235
-0.0123855
0.0151683
-0.0260109
-0.0231825
0.00493457
-0.0134502
0.00833556
0.00187233
0.00226719
0.000381187
0.00965745
0.00317427
-0.00870305
-0.000475596
0.0052006
0.000672848
0.00320417
0.00038253
-0.00126779
0.267617
-5.39033e-05
-0.000698183
-0.00191201
-0.000273513
1.58571e-05
0.00679225
-1.90944e-05
0.169664
0.0429806
0.111737
0.238481
0.099818
0.0383155
-0.0008905
-0.0276751
0.00385879
-0.329248
0.0273511
0.000202224
0.00137062
0.0045113
0
0.12759
-0.000661593
9.90584e-05
0.277648
-0.0040138
0.201577
0.265687
0
-0.000582242
-0.00174556
0.00598476
0.00177132
-0.00028164
-0.00156312
0.00215342
-0.0258543
0.00761678
0.104893
0.00439859
0.00147449
-0.0073494
-0.0100975
0.111777
-0.00836684
0.00397181
-0.000501894
0.219543
0.190258
-0.000770123
-0.0013146
-0.000202917
0.000320602
-0.00719742
8.62981e-05
-0.0117587
0.006908
0.0237341
0.0327495
-0.0095332
0.00183537
-0.0140189
0.00346645
0
0.198583
-0.0102368
0.00695611
0.311542
0.0040921
0.00154198
-0.000828385
0.199636
0.0187176
0.0145899
0.00593617
0.165655
0.00490765
0.0442221
0.00300458
0.00525544
0.00541069
0.298703
0.000610143
0.00787942
-0.00357515
0.0031759
0.145415
0.240021
0.302877
0.140798
0.00479884
-0.0429686
0.219015
0.000900216
0.105768
0.193669
0.112083
0.147169
0.00482888
0.00171345
-0.00233557
-0.0173776
0.00219493
0.00754067
-0.00345905
0.00370467
-0.0060957
0.00568553
0.0610123
0.0518106
0.00602099
0.248431
0.111943
0.00615657
0.110019
0.00291222
-0.00221035
0.0186702
0.00634199
0.00341696
0.203264
0.0627191
0.0983816
-0.0135654
0.0729395
-0.00203149
0.00476026
0.00188939
-0.000271391
-0.000795976
0.000538908
0.0156571
0.00253166
0.0437532
-0.00477878
0.0708099
0.21196
0.101939
0.000838548
0.0436194
-0.0038133
0.220678
0.215896
0.143868
0.0117263
-0.00826719
0.211033
0.0233379
-0.00462471
0.0124134
0.119655
-0.00803146
0.21131
0.20915
0.0206317
-0.000901227
0.00627755
0.00127921
0.00775295
-0.00100815
0.0907895
0.0676145
0.281777
0.00584353
-0.00298443
0.0440746
0.0215103
-0.00608814
0.0265793
0.0365927
0.00342219
-0.00365796
-0.00801845
0.0142283
0.00119557
0.00918995
0.0717783