# vtk DataFile Version 2.0
Unstructured Grid by M++
ASCII
DATASET UNSTRUCTURED_GRID
POINTS 4072 float
  0.546875   0.656250 0
  0.546875   0.578125 0
  0.718750   0.625000 0
  0.656250   0.875000 0
  0.734375   0.609375 0
  0.671875   0.859375 0
  0.718750   0.609375 0
  0.656250   0.859375 0
  0.734375   0.593750 0
  0.671875   0.843750 0
  0.578125   0.984375 0
  0.640625   0.734375 0
  0.546875   0.593750 0
  0.593750   0.984375 0
  0.656250   0.734375 0
  0.640625   0.984375 0
  0.703125   0.734375 0
  0.546875   0.781250 0
  0.609375   0.531250 0
  0.546875   0.796875 0
  0.968750   0.531250 0
  0.609375   0.546875 0
  0.890625   0.984375 0
  0.953125   0.734375 0
  0.578125   0.593750 0
  0.515625   0.843750 0
  0.953125   0.625000 0
  0.890625   0.875000 0
  0.781250   0.578125 0
  0.718750   0.828125 0
  0.734375   0.812500 0
  0.640625   0.968750 0
  0.703125   0.718750 0
  0.671875   0.937500 0
  0.734375   0.687500 0
  0.671875   0.953125 0
  0.734375   0.703125 0
  0.656250   0.953125 0
  0.718750   0.703125 0
  0.656250   0.968750 0
  0.718750   0.718750 0
  0.578125   0.765625 0
  0.562500   0.765625 0
  0.578125   0.750000 0
  0.921875   0.953125 0
  0.984375   0.703125 0
  0.921875   0.937500 0
  0.984375   0.687500 0
  0.562500   0.953125 0
  0.578125   0.578125 0
  0.515625   0.828125 0
  0.562500   0.578125 0
  0.656250   0.937500 0
  0.718750   0.687500 0
  0.640625   0.937500 0
  0.703125   0.687500 0
  0.640625   0.953125 0
  0.703125   0.703125 0
  0.546875   0.765625 0
  0.609375   0.515625 0
  0.531250   0.765625 0
  0.593750   0.515625 0
  0.890625   0.937500 0
  0.953125   0.687500 0
  0.859375   0.750000 0
  0.796875   1.000000 0
  0.984375   0.734375 0
  0.921875   0.984375 0
  0.968750   0.734375 0
  0.906250   0.984375 0
  0.984375   0.718750 0
  0.921875   0.968750 0
  0.593750   0.546875 0
  0.531250   0.796875 0
  0.593750   0.531250 0
  0.531250   0.781250 0
  0.953125   0.515625 0
  0.578125   0.562500 0
  0.515625   0.812500 0
  0.578125   0.546875 0
  0.515625   0.796875 0
  0.593750   0.609375 0
  0.531250   0.859375 0
  0.578125   0.609375 0
  0.515625   0.859375 0
  0.859375   0.703125 0
  0.796875   0.953125 0
  0.828125   0.750000 0
  0.765625   1.000000 0
  0.828125   0.734375 0
  0.765625   0.984375 0
  0.921875   0.796875 0
  0.984375   0.546875 0
  0.562500   0.812500 0
  0.906250   0.796875 0
  0.921875   0.781250 0
  0.812500   0.765625 0
  0.750000   1.000000 0
  0.812500   0.750000 0
  0.859375   0.531250 0
  0.796875   0.781250 0
  0.796875   0.765625 0
  0.781250   0.781250 0
  0.875000   0.578125 0
  0.812500   0.828125 0
  0.937500   0.734375 0
  0.875000   0.984375 0
  0.765625   0.578125 0
  0.703125   0.828125 0
  0.781250   0.562500 0
  0.718750   0.812500 0
  0.750000   0.578125 0
  0.687500   0.828125 0
  0.765625   0.562500 0
  0.703125   0.812500 0
  0.625000   0.953125 0
  0.687500   0.703125 0
  0.609375   0.968750 0
  0.671875   0.718750 0
  0.609375   0.953125 0
  0.671875   0.703125 0
  0.625000   0.875000 0
  0.687500   0.625000 0
  0.609375   0.890625 0
  0.671875   0.640625 0
  0.625000   0.890625 0
  0.687500   0.640625 0
  0.609375   0.906250 0
  0.671875   0.656250 0
  0.937500   0.578125 0
  0.875000   0.828125 0
  0.921875   0.593750 0
  0.859375   0.843750 0
  0.921875   0.578125 0
  0.859375   0.828125 0
  0.937500   0.640625 0
  0.875000   0.890625 0
  0.562500   0.703125 0
  0.546875   0.718750 0
  0.546875   0.703125 0
  0.531250   0.718750 0
  0.906250   0.968750 0
  0.968750   0.718750 0
  0.906250   0.953125 0
  0.968750   0.703125 0
  0.906250   0.937500 0
  0.968750   0.687500 0
  0.890625   0.968750 0
  0.953125   0.718750 0
  0.890625   0.953125 0
  0.953125   0.703125 0
  0.593750   0.765625 0
  0.609375   0.750000 0
  0.593750   0.750000 0
  0.937500   0.953125 0
  0.843750   0.921875 0
  0.906250   0.671875 0
  0.828125   0.937500 0
  0.890625   0.687500 0
  0.546875   0.750000 0
  0.546875   0.734375 0
  0.531250   0.750000 0
  0.953125   0.671875 0
  0.890625   0.921875 0
  0.531250   0.671875 0
  0.515625   0.687500 0
  0.875000   0.921875 0
  0.937500   0.671875 0
  0.515625   0.937500 0
  0.859375   0.937500 0
  0.921875   0.687500 0
  0.859375   0.921875 0
  0.921875   0.671875 0
  0.843750   0.937500 0
  0.906250   0.687500 0
  0.921875   0.703125 0
  0.859375   0.953125 0
  0.937500   0.703125 0
  0.875000   0.953125 0
  0.937500   0.687500 0
  0.875000   0.937500 0
  0.828125   0.656250 0
  0.968750   0.593750 0
  0.968750   0.578125 0
  0.906250   0.812500 0
  0.953125   0.593750 0
  0.953125   0.578125 0
  0.875000   0.843750 0
  0.937500   0.593750 0
  0.953125   0.656250 0
  0.531250   0.921875 0
  0.890625   0.906250 0
  0.953125   0.640625 0
  0.890625   0.890625 0
  0.937500   0.656250 0
  0.875000   0.906250 0
  0.718750   0.593750 0
  0.656250   0.843750 0
  0.734375   0.578125 0
  0.671875   0.828125 0
  0.718750   0.578125 0
  0.656250   0.828125 0
  0.734375   0.562500 0
  0.671875   0.812500 0
  0.578125   0.890625 0
  0.640625   0.640625 0
  0.593750   0.890625 0
  0.656250   0.640625 0
  0.578125   0.906250 0
  0.640625   0.656250 0
  0.578125   0.953125 0
  0.640625   0.703125 0
  0.593750   0.953125 0
  0.656250   0.703125 0
  0.578125   0.968750 0
  1.000000   0.703125 0
  0.640625   0.718750 0
  0.593750   0.968750 0
  0.656250   0.718750 0
  0.734375   0.515625 0
  0.671875   0.765625 0
  0.968750   0.765625 0
  0.984375   0.750000 0
  0.843750   0.750000 0
  0.781250   1.000000 0
  0.859375   0.734375 0
  0.796875   0.984375 0
  0.843750   0.734375 0
  0.781250   0.984375 0
  0.859375   0.718750 0
  0.796875   0.968750 0
  0.843750   0.718750 0
  0.781250   0.968750 0
  0.828125   0.640625 0
  0.765625   0.875000 0
  0.828125   0.625000 0
  0.875000   0.546875 0
  0.812500   0.796875 0
  0.812500   0.781250 0
  0.796875   0.796875 0
  0.875000   0.609375 0
  0.812500   0.859375 0
  0.968750   0.796875 0
  0.546875   0.687500 0
  0.546875   0.671875 0
  0.531250   0.687500 0
  0.984375   0.796875 0
  1.000000   0.796875 0
  0.562500   0.796875 0
  0.578125   0.781250 0
  0.625000   0.531250 0
  0.562500   0.781250 0
  0.578125   0.640625 0
  0.515625   0.890625 0
  0.562500   0.640625 0
  0.578125   0.625000 0
  0.515625   0.875000 0
  0.875000   0.703125 0
  0.812500   0.953125 0
  0.750000   0.609375 0
  0.687500   0.859375 0
  0.765625   0.593750 0
  0.703125   0.843750 0
  0.750000   0.593750 0
  0.687500   0.843750 0
  0.625000   0.984375 0
  0.687500   0.734375 0
  0.625000   0.968750 0
  0.687500   0.718750 0
  0.609375   1.000000 0
  0.671875   0.750000 0
  0.609375   0.984375 0
  0.671875   0.734375 0
  0.625000   0.906250 0
  0.687500   0.656250 0
  0.609375   0.921875 0
  0.671875   0.671875 0
  0.625000   0.921875 0
  0.687500   0.671875 0
  0.609375   0.937500 0
  0.671875   0.687500 0
  0.625000   0.937500 0
  0.687500   0.687500 0
  0.968750   0.656250 0
  0.906250   0.906250 0
  0.984375   0.640625 0
  0.921875   0.890625 0
  0.968750   0.640625 0
  0.906250   0.890625 0
  0.984375   0.625000 0
  0.921875   0.875000 0
  0.968750   0.625000 0
  0.906250   0.875000 0
  0.953125   0.765625 0
  0.906250   1.000000 0
  0.968750   0.750000 0
  0.937500   0.765625 0
  0.953125   0.750000 0
  0.953125   0.796875 0
  0.937500   0.796875 0
  0.953125   0.781250 0
  1.000000   0.531250 0
  0.937500   0.781250 0
  0.984375   1.000000 0
  1.000000   1.000000 0
  1.000000   0.984375 0
  0.890625   0.765625 0
  0.718750   0.515625 0
  0.656250   0.765625 0
  0.890625   0.796875 0
  0.890625   0.781250 0
  0.562500   0.671875 0
  0.921875   0.656250 0
  0.578125   0.656250 0
  0.515625   0.906250 0
  0.562500   0.656250 0
  0.890625   0.750000 0
  0.828125   1.000000 0
  0.875000   0.734375 0
  0.812500   0.984375 0
  0.546875   0.968750 0
  0.625000   0.718750 0
  0.171875   0.656250 0
  0.750000   0.046875 0
  0.062500   0.609375 0
  0.046875   0.609375 0
  0.734375   0.031250 0
  0.046875   0.593750 0
  0.718750   0.125000 0
  0.703125   0.109375 0
  0.687500   0.125000 0
  0.500000   0.937500 0
  0.437500   0.765625 0
  0.359375   0.625000 0
  0.296875   0.875000 0
  0.343750   0.609375 0
  0.281250   0.859375 0
  0.250000   0.515625 0
  0.484375   0.531250 0
  0.468750   0.515625 0
  0.468750   0.656250 0
  0.453125   0.671875 0
  0.031250   0.937500 0
  0.390625   0.921875 0
  0.250000   0.968750 0
  0.765625   0.234375 0
  0.750000   0.093750 0
  0.750000   0.078125 0
  0.000000   0.515625 0
  0.500000   0.765625 0
  0.328125   0.718750 0
  0.343750   0.703125 0
  0.328125   0.687500 0
  0.312500   0.703125 0
  0.343750   0.781250 0
  0.406250   0.531250 0
  0.015625   0.531250 0
  0.062500   0.593750 0
  0.750000   0.015625 0
  0.062500   0.578125 0
  0.046875   0.578125 0
  0.734375   0.000000 0
  0.296875   0.687500 0
  0.484375   0.843750 0
  0.031250   0.593750 0
  0.718750   0.015625 0
  0.031250   0.578125 0
  0.468750   0.828125 0
  0.703125   0.000000 0
  0.750000   0.234375 0
  0.453125   0.750000 0
  0.218750   0.687500 0
  0.421875   1.000000 0
  0.000000   0.218750 0
  0.484375   0.750000 0
  0.468750   0.765625 0
  0.468750   0.875000 0
  0.046875   0.093750 0
  0.296875   0.781250 0
  0.437500   0.984375 0
  0.015625   0.203125 0
  0.500000   0.796875 0
  0.078125   0.015625 0
  0.484375   0.875000 0
  0.484375   1.000000 0
  0.062500   0.218750 0
  0.468750   0.859375 0
  0.484375   0.781250 0
  0.062500   0.000000 0
  0.484375   0.921875 0
  0.062500   0.140625 0
  0.453125   1.000000 0
  0.031250   0.218750 0
  0.312500   0.562500 0
  0.250000   0.812500 0
  0.468750   0.937500 0
  0.046875   0.156250 0
  0.343750   0.593750 0
  0.375000   0.562500 0
  0.312500   0.812500 0
  0.203125   0.671875 0
  1.000000   0.234375 0
  0.375000   0.593750 0
  0.312500   0.796875 0
  0.484375   0.890625 0
  0.062500   0.109375 0
  0.296875   0.796875 0
  0.187500   0.656250 0
  0.984375   0.218750 0
  0.359375   0.546875 0
  0.375000   0.625000 0
  0.359375   0.609375 0
[...]
POINT_DATA 4072
SCALARS scalar_value float 1
LOOKUP_TABLE default
-0.00301628
-0.00544197
-0.00182025
0.00276385
-0.000513703
0.00058767
-0.00648548
-0.00265802
0.00539378
-0.00805939
-0.00228544
0.00705883
-0.00863297
0.00659288
-0.0104205
-0.00721358
0.00548545
-0.00653544
0.00793978
0.00281763
0.00189492
0.00328057
0.00455399
-0.000471136
0.01278
-0.00310024
3.74244e-05
-0.00500794
0.000971764
0.00363754
0.00308761
-0.000537755
0.00168354
-0.00418005
0.00542902
-0.00584263
0.00220347
-7.12442e-05
-0.00406312
0.0028602
0.00113094
0.00315548
0.00056287
0.00705168
0.000433193
0.00470321
-0.00234307
0.00461789
0.00155767
0.00717652
0.00462565
0.0030616
0.00297516
-0.00100748
-0.00395237
0.00535074
-0.00384911
0.00249441
0.00247164
0.00415907
0.00265654
-0.00598493
0.00281725
-0.00167362
0.00144852
0
0.00427706
-0.000766207
0.00304164
-0.00370152
0.00105834
0.00095263
-0.00892746
0.00306696
-0.00743331
0.00189143
-0.00191186
0.00894592
-0.00338127
0.00885488
0.00633671
-0.0049069
0.00047186
0.0115016
0.00160578
-0.0023325
-0.00981609
0.00674982
0
0.00342218
-0.00123559
0.00215376
0.0055682
-1.43412e-06
-0.00112081
-0.00111462
-0.00756951
0
-0.00190186
9.19428e-05
-0.0067604
0.000564122
0.00758378
-0.00575018
-0.00666699
-0.0011259
-0.0019419
0.00155664
-0.00277871
0.00442504
-0.00240625
-0.00781268
0.000158406
0.00440379
0.0023628
0.00252746
-0.00477334
-0.00112285
-0.0017565
-0.00299481
0.00133678
0.00332835
0.00668697
-0.00249524
-0.00687404
-0.000661241
-0.0050383
-0.00157891
0.00754854
-0.000847331
-0.00158527
-0.00037931
-0.00476087
-0.00714098
0.00233492
-0.00136343
-0.000747073
0.00930514
0.00135025
-0.00489124
-0.00537411
-0.00313681
0.00357986
-0.00153316
0.00182705
-0.00252427
0.00470557
0.000973216
0.000448865
0.00233084
0.000338315
0.0100484
0.0149678
-0.0121909
-0.00290414
0.0011511
-0.000645049
0.00132949
-0.00629979
-0.00516675
-0.00331454
-0.000355793
0.000142448
0.00467398
0.010983
0.0100495
0.00213646
-0.0011454
0.00243914
-0.00380626
-0.00151558
0.000323199
-0.00274793
0.00502954
0.00373221
-0.00125414
0.00394264
-0.00027785
-0.00110968
-0.000821217
-0.00383051
0.00415727
0.00675522
0.00170039
-0.00938547
-0.00308204
-0.00522561
0.0082184
0.00262423
-0.000605827
0.00225063
-0.00202419
-0.00329799
0.0085496
0.000145682
-0.00291962
-0.00101848
0.0063171
-0.00132856
-0.0039104
-0.0090733
-0.0019905
0.00418332
0.00219073
0.000395523
0.00589141
0.00254884
-0.00492949
0.00127674
0.00375638
-0.00357445
0.00131546
0.0052418
-0.00615902
0.00360251
0.000442401
-0.00292022
2.19566e-05
0.00727578
-0.00663173
0.00442494
0.00211132
0.00304668
-0.001142
0
0.000342208
-0.00921047
-0.00563831
-0.00237328
0.00254523
-0.00181822
-0.000605375
-0.00405138
-7.88185e-05
0.0158791
3.51033e-05
-0.00159799
-0.00943902
0.00342666
0.0010871
-0.000555461
-0.00518645
-0.000281817
-0.000393562
-0.017042
-0.0024843
0.00164999
-0.000325514
-0.00594878
0.000691551
0.00308772
-0.000523232
0.0132637
-0.00289059
-0.000586411
0.0101338
-2.52294e-05
0.00030141
-0.00394583
-0.00629303
-0.00608647
0.00358465
0.000551663
-0.00282295
-0.00271662
0.00226917
-0.00979899
-0.00151858
0.0027868
0
-0.0058198
-0.00422921
0.00665442
0.0015122
0.00221736
-0.00257528
-0.00212301
0.0007094
-0.00322006
-0.00180988
0.00300001
-0.000615879
0.000837985
0.00249819
-0.00181962
0.0049703
0.000742461
0.00662563
-0.00280242
0.00283049
-0.0191399
0.00515728
-0.00501223
0.00116275
0
0.000513095
-0.00167651
0.000437079
-0.000165424
-0.00213788
-0.000496438
0.00378577
-0.00254221
0
0
-0.0043752
-0.00406302
-0.00390825
-0.00523615
0.00559053
-0.00795904
0.0180466
3.30993e-05
0.0129117
0.00220069
-0.000137856
-0.00642766
0
-0.000731854
0.00220248
0.000173206
0.0144312
0.0011193
-0.000100406
-0.00678727
0.00685646
0.0175692
-0.00598157
0.00231941
0.0252225
0.0909256
-0.00281587
-0.00010825
0.00650462
0.0054264
0.0067309
-0.00232345
0.0104363
0.00542409
0.00131566
-0.00992636
-0.000656143
0.00118071
-0.00244453
0.00610886
0.0031681
-0.00101183
-0.000828798
0.000473665
0.000790452
0.00513481
0.00584616
-0.000112669
-0.00552235
-0.00392571
-0.0208241
0.00210682
0.00883304
0.000861813
-0.0034018
0.00159675
0.0226673
0.00326147
0.00383059
0.00440898
0.0254708
-0.000759112
0.00352974
0.0314104
-0.00997266
0.00233575
-0.00460107
0
-0.00365066
0.00294331
-0.00510423
-0.00474412
-0.000410814
0.00170499
-0.00145011
0.000739992
0.00354737
0.00170999
0.00166334
0
0.00401109
0.00238386
0.00430895
0.00314893
0.00574002
-0.000180775
0
-0.00441765
-0.00494714
0.000387415
-0.000397545
-0.000222206
-0.00653789
-0.00230307
0.000835341
-0.00158741
-0.00658898
-0.00392084
-0.00394035
0.0043726
0.00146513
-0.00271848
0.00163932
0.000900218
0.00208849
-0.0055412
-0.00220237
-0.0032997
0.00176281
-0.000256583
-0.000322507
-0.000368718
-0.00399461
0.00286546
0.00225332
0.00523899
-9.56114e-05
-0.00904749
0.00133918
0.00316293
-0.00106235
-0.00342994
0.00316098
-0.0132712
0.000149675
0.00090902
-0.00228324
-0.00405408
-0.009454
0.00249996
0.0070037
-0.000939493
0.000776969
-0.00134834
0.00135146
-0.000742126
0.008808
0.0150045
0.0130255
-0.00292412
0.0178425
0.0380146
-0.00757314
0.12868
0.00198847
0.00603375
-0.0041089
0.00163634
0.00857868
0.00786861
0.0187247
0.00442461
0.00468652
-0.00156712
-0.00347768
0.00386208
0.000971747
0.00278412
0.00307964
0.0113628
0.012128
0.0100165
0.0140556
-0.00528576
-1.71008e-05
-0.00105887
0.000996183
-0.00403154
-0.00654061
-0.00392954
-0.00352921
0.00279917
-0.00344627
0.0105748
-0.00100554
-0.00299351
-0.00081214
-0.00121626
0.000769036
0.000417073
-0.00119842
0.00165321
0.00103931
-0.00191324
-0.000414553
0.00396162
-0.0101259
0
-0.00905162
0.00398104
0.0132251
0
-0.00691442
-0.000795763
-0.00535386
0.0022721
0.00259368
-0.00560468
0
0
0.00315892
0.0015138
0.00363406
-0.000481848
0.0245352
0.00605986
-0.00216455
-0.00482342
-0.00503237
1.38584e-05
0.000104611
-0.00178815
0.00744118
0.00601898
0.00370763
-0.00331255
-0.000964057
0.00835395
0.00122651
0.00169127
-0.00183941
0.000862858
-0.00599942
-0.000797277
0.0065431
0.00210196
-0.00136644
-0.00413661
0.00189094
-0.00109045
0.00424594
0.00961198
-0.0029926
0.00249627
-0.00868592
0.00352619
-0.0202264
0.00210887
0
0.00456111
-0.0123026
0.00393203
0.00285719
-0.00915654
-0.00363615
-0.0112915
-0.00473948
0.00247679
-0.00423107
0.00432744
-0.00818489
-0.0020971
-0.000408995
0.00641242
0.00426561
-0.0049622
0.0102816
0.0047773
0.0105266
-0.0130595
0.00393415
-0.0206288
-0.00545518
-0.00421812
0.0044914
0.00161452
0.000308352
-0.00160326
-0.00241077
-0.00151959
0.0179675
0.00355612
0.00278052
-0.0160038
-0.0162678
-0.00877442
0.0155784
0.00921781
-0.00226285
-0.000274779
0.0128284
-0.0117379
0.000139507
0.00773775
-0.00315779
-0.00486873
-0.0348474
-7.32415e-05
0.00754235
0.0039236
0.00272463
-0.0119693
0.00618793
0.00496207
-0.00202448
-0.001341
0.000847836
-0.00169685
0.00803875
0.00167122
0.00707225
-0.00444729
0.000422961
0.00163682
-0.00485393
-0.0227236
0.00590301
0.00499004
0.00574412
-0.00108395
-0.034042
0.00283643
-0.00883987
-0.00632142
-0.000285302
-0.00252636
-0.00119638
-0.00118269
0.00368803
-0.00142321
0.00446758
-0.000692716
-0.0666569
0.0128267
-0.00621588
0.00366243
0.00364465
-0.00726678
0.0108599
-0.00251942
-0.0117955
0.110293
-0.00451011
0.00243291
0.00173625
0.00315604
-0.00284681
-0.0120327
-0.0141539
0.00283285
-0.000326276
-0.000181053
0.0148814
-0.0615378
-0.000340972
0.00180088
0.00984549
0.00781638
-0.00561
0.000490423
-0.00178037
0.00291678
-0.00346762
-0.00437177
0.00703912
-0.00347138
-0.00293726
0.00591886
-0.00046534
-0.000931332
-0.000558291
-0.00144618
-0.00164488
0.00471373
0.00803461
0.00553334
-0.0132652
0
0.0349193
-0.00372772
-0.0141778
-0.00206637
0.00572424
0.00331883
-0.00168446
-0.00151735
0.00212499
0.00611426
0.00651476
-0.00235449
0.00719995
0.00037129
0.000980231
5.64234e-05
0.00316375
-0.000174526
0.000711337
0.00094133
0
0.0130258
0.0168131
-0.00185351
0.0305871
-0.00397895
-0.00558335
0.0177053
0.000389262
-0.0143427
-0.0098837
0.00417726
0.00267824
0.00237686
-0.0079703
0.00274092
0.0011186
-0.00575335
-0.00127067
-0.00446765
-0.00445769
0.0034582
0.00248857
-0.00337178
-0.00426689
0.005875
0.00317392
0.00334611
0.000702563
-0.00446541
0.00147449
-0.00629232
0.00462993
0.00210135
0.0349038
-0.00195885
-0.00114595
-0.00115464
0.000489524
-0.00463627
0.038723
-0.000547107
0.000285214
0.000702756
0.00474255
0.0052329
0.00144273
0.0428151
0.00670576
-0.000699704
-0.000751324
0.0469844
-0.0520731
0.00380592
-0.0246842
-0.00197582
0.0236006
0
0.0757837
0.0496843
0.00885046
-0.00455427
0.00557576
-0.00525258
-7.24921e-05
-0.0440098
0.00383792
-0.000253823
-0.00377071
0.00435145
0.00333949
-0.0124079
-0.00498176
-0.000616883
-0.00736466
-0.00172579
-0.00941747
0.0097309
0.00200788
-5.42626e-05
0.00438506
-0.00295117
-0.00242535
3.58101e-05
-0.00697375
0.00276387
-0.00150292
-0.0066286
0.00172637
-0.00336084
2.84736e-05
-0.00221235
-0.00200152
0.00890117
-0.000178657
-0.00415226
-0.00442326
-0.00676279
0.0105295
-0.000388077
-0.00514629
0.00453587
0.00340301
-0.0116894
0.0526517
-0.0183265
0.0575045
0.000120466
0.00136314
-0.0097538
0.158368
0.0577175
0.00492536
0.00303127
0.0503439
0.000685106
0.000378012
-0.0042443
-0.000588717
-0.00782509
0.0851632
0.00450557
0.0138681
0.0877744
0.00430112
0.000661945
0.00292486
0.109322
-0.0076391
-0.0241159
4.0879e-05
0.113452
-0.00759988
-0.00384356
-0.0202683
-0.00885071
0.008998
-0.00591452
0.0331446
0.0169553
-0.00284055
0.00112863
-0.00613585
-0.00164619
0.0104689
-0.00351832
0.00356521
-0.00271421
0.00379314
-0.00316795
0.00206711
-0.00293078
-0.00348871
0.00165809
0.0674031
0.00021908
0.0315742
-0.00168457
-0.0153016
0.000646737
0.00073924
-0.00425763
0.00143468
0.00166655
0.0536588
0.0253414
0.0368381
-0.000803393
0.00461229
-0.0122977
-0.00498816
0.101121
-0.00258852
0.00362
0.107545
-0.0128687
-0.00170437
0.0194615
0.00347449
0.12003
-0.00949659
-0.0366625
-0.00176914
0.00318137
0.00140947
0.128176
-0.0042565
0.00547936
0.00176202
-0.00275735
0.00537104
-0.00568879
0.00207404
-6.28483e-05
0.00803354
-0.00173658
0.0032152
-0.00612875
0.0067678
-0.00183585
-0.00142415
-0.0236145
0.0118442
-0.00209003
0.00372177
0.000127623
0.00183977
-0.0036716
0.0134805
0.00315014
-0.00403391
-0.00752586
0.00752484
-0.00420485
-0.000874625
-0.000301303
-0.00573919
0.00750884
-0.00633086
-0.00653068
-0.0132133
-0.00206369
-0.00662451
0.00521898
0.0360407
-0.00524509
-0.00265123
0.0113392
-0.000118106
0.0145741
-0.0075244
0.01609
-0.00776117
-0.0134655
0.00356569
0.002727
0.00698955
0.00614188
0.0113291
0
0.00233083
-0.00804644
-0.000576775
0.0705615
0
-0.000678096
0.00597907
0.00515601
-0.0149999
-0.00483446
0.0402118
-0.000624917
0.0360738
-0.00931381
0.00067255
0.00138382
0.00343588
0.000906562
0.00200761
-0.00407386
0.00356836
-0.0029744
0.00222144
-0.00488571
-0.0024325
0.0219502
0.0617486
-0.00423229
0.00328433
0.039439
0.165326
0.0255003
0.0229413
0.0589009
0.00121247
-0.0023532
0.015102
0.00645078
0.0225804
0.0578903
0.0205652
0.044584
0.00681847
-0.0127616
0.012013
-0.00924619
0.000845201
-0.00263565
0
-0.00386566
-0.0103137
0.00528965
-0.00322866
0.010366
-0.0363469
-0.0100336
0.0102335
0.00395232
-0.00570038
-0.000909596
0.000270669
-0.000101325
-0.0340354
0.00181114
0.00824806
-0.000310729
-0.00308626
-0.00486753
0.00456164
0.0236289
0.00539885
-0.00723953
0.0333655
-0.0289383
0
-0.00149099
0.00212378
-0.00378852
-0.00211265
0.00194903
-0.00453204
-0.0321451
-0.00129912
-0.00312492
-0.00887011
0.0220157
0
-0.0105396
0.0161804
-0.000170427
0.00176425
0.000324705
-0.00265507
-0.00722448
-0.00412123
0.00094031
0.00581022
-0.00928184
0.00173676
0.00066085
-0.00391972
0.00337479
-0.00746569
0.000124015
-0.0024221
-0.00229346
0.0024747
0.0335144
-0.00754467
-0.000725668
0.0423229
0.00412227
0.0490868
0.00588779
-0.0048962
0.0194965
0.0029516
0.00102061
0.0240896
-0.0017623
0.0251942
-0.00419518
0.00809846
0.000151567
-0.0112225
-0.00178857
0.0133369
0.0198493
0.00590104
-0.00092467
0.028172
0.0136768
0.000654751
-0.00046537
-0.00325525
0.102579
0.00405632
0.0295426
0.0115679
-0.00459606
0.00257236
0.00109234
-0.0305151
0.0615806
0.00497572
0.0021006
-0.000296972
-0.00618219
0.00610772
-0.00860966
0.00420933
-0.0160805
0.00513855
-0.00386416
0
0.00669942
-0.000292868
-0.0327533
0.00277668
0.00023291
-0.00553689
-0.00296815
-0.00780295
0.044195
0.00239995
-0.00161655
-0.00550268
0.000955726
-0.00679885
0.00403658
0.009864
-0.00798774
0.00383492
-0.000353629
-0.00236007
0.0333266
0.000617553
-0.00356817
0.0063045
-0.0194006
0.0748593
0.000761858
0.0382293
-0.0077538
0.00124852
0.00202802
-0.00282932
-0.00841152
-0.00209919
0.00181772
0.0102135
0.00949975
0.010095
-0.00985818
0.0039397
-0.00337115
0.00739214
-0.00755629
-0.00302131
0.00721304
0.000720865
0.0469994
-0.00297033
-0.0156897
-0.00327199
-0.00523954
0.00380702
-0.00291816
-0.00219508
-0.00430265
0.00165613
0.000684341
-0.00678095
0.00449726
0.0571838
0.00357911
0.00734721
0.00262783
0.00369856
0.00160604
0.00340136
0.00333441
0.00192536
0.00529912
-0.00902702
-0.00261787
0.00337641
0.0705089
-0.0227925
-0.000951321
-0.0126001
-0.000429133
0.00170934
-0.0121916
-0.00345869
-0.00115492
0.0130963
-0.0119715
0.0013977
-0.00163891
-0.00445931
0.00838699
0.00666942
-0.00152408
-0.000339581
-0.00555351
-0.0102287
0.0021908
-0.0016984
0.000246078
-0.00370071
0
-0.00125452
0.0113179
0
0.00280069
0.00900499
0.0179619
0.000282189
0.0320604
-7.94476e-05
0.124529
0.00122239
0.004031
0.0305093
0.000687588
-0.0103591
0.00603862
-0.00380556
-0.00897723
0.00408258
-0.0196332
-0.00427702
0.13234
-0.00666163
-0.00163201
-0.0166924
0.00466874
0.0871209
0.00991239
0.0311781
-0.0020326
0.0113599
0.0113856
-0.00469296
-0.0139856
0.00707423
0
-0.00492
0.00253003
0.0208103
-0.00821148
0.00359908
-0.00116778
-0.00306056
0.0302907
0.00461137
0.0235887
0.00277484
0.0030825
0.00541485
0.0181048
0.0092068
0.00331655
0.00560513
-0.000213357
0.0324793
0.000487499
0.00191255
-0.000642814
-0.000609464
0.0650408
0.00803075
-0.00384964
0.00191297
0.0562999
-0.00452745
0.029759
0.00366355
0.00337254
0.020181
0.00209651
-0.00655041
0.103062
0.00407322
0.00694693
0.00130579
-0.00318302
-0.0118308
0.00492729
-0.000393226
-0.046822
0.0306891
-0.00132046
0.0226875
-0.00542458
0.0240023
-0.00220348
0.0114855
-0.0025906
-0.0215663
0.0151381
0.0574855
-0.000917654
-0.00514791
-0.00690084
-0.00253297
0.0515941
0.0129882
0.0456403
-0.000588228
-0.00346488
-0.00434036
0.0849392
0.000632593
-0.00340172
-0.000545927
0.0186857
0.00210183
0.0124333
-0.000470622
-0.000622407
0.0079676
-0.00437745
-0.00763068
-0.0029152
0.00629344
-0.00381326
0.00483415
-0.0029578
0.0020349
-0.00175892
0.00920314
0.00332293
0.0143303
-0.000473599
-0.00474573
0.00395919
0
0.00300389
-0.0163467
-0.00471322
-0.00327647
0.000492005
0.0251797
-0.00105319
0.0368938
-0.00627368
-0.000671246
0.00324142
-0.0243596
-0.0201958
-0.002541
-0.00189196
-0.00695292
0.00211147
0.00243258
-0.00536484
-0.0139564
0.00660424
-0.00287776
-0.000727732
-0.00482596
0.00284513
0.000403516
-0.0030361
-0.000183514
0.000315918
0.00430881
-0.00306371
-0.0134514
-0.000366282
-0.00771479
-0.00200538
-0.00192558
-0.0405128
0.00948514
0.00239572
0.00812423
-0.00203018
0.0132968
0.000541636
0.00837047
0.0120161
0.0186235
0.00189576
0.00176553
0.000975345
0.0104079
0.0252576
-0.00334342
0.00371777
-0.000488208
0.00977553
0.0263833
-0.0420785
0.00227633
0.000136189
0.00186359
0.00198906
-0.00964209
-0.00363876
0.00045317
0.000341348
0.000310743
0.000305521
-0.000805369
-0.00194497
-0.0348227
0.0101947
-0.0066833
0.00187552
-0.0107537
4.72926e-05
0.00499638
0.0070082
0.00188655
-0.00412325
0.0376679
0.00702251
-0.00312786
0.0108826
-0.0160053
0.0139624
0.0039315
0.00496581
0
0.00147559
0.00664003
-0.0120471
0
-0.000161833
0.00236086
-0.00164559
0.000389681
-0.00608044
0.0144377
0.0822339
0.000350565
0.0771795
-0.000467526
0.00925646
0.0631803
-0.00265439
0.00141063
0.00716105
-0.00289772
-0.00528756
0.00962562
-0.0194127
-0.0120637
0.0679851
-0.00145153
0.00166085
0.00499265
-0.0027238
-0.00507825
0.0139939
0.00451527
0.0133468
0.00465788
-0.00499934
0.0234276
0.016494
0.00218923
-0.00649461
0.00207506
0.000369587
0.00398412
-0.00403281
-0.0037377
0.000535171
0.00260988
0.00370416
-0.00257482
0.0446133
-0.00409594
-0.0052016
0.00502773
-5.67132e-05
-0.00242185
0.00107509
-0.00666384
-0.00177677
0.00119325
0.00436324
-0.00107882
0.184475
0.00653484
-0.00188388
-0.00014563
0.003678
0.00243206
-0.00169633
0.0015386
-0.00388869
-0.000517681
0.00043522
-0.00380374
-0.000169469
0.0156584
0.00333124
-0.00177634
0.000493053
-0.00548379
0.0103445
0.00329515
-0.00646619
-0.000624479
0.00136087
0.00193897
0.00104982
0.0573296
-0.00198893
-0.00144208
0.00685585
0.00205385
0.00663418
-0.00595833
0.000670998
0.00975022
0
0.0753164
-0.000202242
0.0112141
-0.00204264
0.00753587
-0.00104493
0.0168182
0.0025893
0.0109859
-0.00484924
-0.000568246
0.00322335
-0.00198848
0.00524085
0.00627718
-0.000187448
-0.0374146
0.000785968
-0.000523558
0.00345977
-0.0233879
0.00660032
0.00437816
-0.00139491
0.00141336
-0.00970789
0.00305656
-0.0180659
0.00811298
0.0020701
6.27173e-07
0.101794
0.0300506
-0.00962408
-0.00203039
0.00450583
0.000640756
-0.0042139
0.00139648
-0.00858864
0.0135308
0.00221627
-0.00274005
0.00529384
-0.002454
0.00286449
-0.000651526
0.00114076
0.00189194
-0.000884362
-0.000786878
-0.00581562
-0.00204404
7.42631e-05
-0.00209827
-0.00204381
0.00015951
-0.0112313
0.0467489
0.011093
-0.00310067
0.00196149
0.00364075
-0.0094948
-0.00121191
0.0294514
0.00400715
0.000533663
-0.00914447
0.00470543
-0.00643827
0.00238214
0.0206811
-0.00711993
0.0303023
0.0525288
-0.00766955
0.00222951
0.00215624
-0.00095926
-0.000650085
0.00789538
0
-0.00314102
-0.00311418
-0.0302418
-0.0019079
0.113561
0.00461958
-0.001716
0.00164406
-0.00148136
-0.000161362
-0.00234436
0.00806187
0.0651581
-0.00969255
-0.00193185
-0.00139093
-0.02169
0.00119659
0.00298383
0.00919309
0
0.0104426
0.00387833
-0.0016026
-0.00207805
0.0259532
0.00286553
0.000169922
-0.000932997
-0.00355033
0.0310882
-0.00179154
0.00973303
-0.0035373
-0.00219331
-0.0038243
0.000888169
0.00881398
0.0129897
-0.00817771
-0.00410568
-0.0045079
-0.000158796
-0.00403316
-0.00138438
-0.00327899
0.00235971
-0.00545324
-0.00205068
0.00349378
-0.0337218
0.00309015
-0.00315096
-0.00224134
0.102324
-0.0039281
0.00827133
-0.0238815
0.000727632
-0.0107977
-0.0340185
0.00803819
-0.00467505
0.0595362
0.174515
0.0039171
-0.00627837
0.00233099
0.00420287
-0.00453501
0.0594536
0.00692379
0.0377655
0.00976454
-0.0035822
-0.00800026
-0.00153686
0.00688065
0.00159211
0.0378312
-0.00303892
0.00145878
0.0455971
0.00425195
0.0388955
0.045378
0.00317806
0.000381366
-0.00502039
0.00625953
0.00573733
0.00140343
-0.00162543
0.000455925
0.00115191
-0.00316228
-0.00189349
-0.00372464
-0.00505985
0.00364213
0.00541296
-0.00515625
-0.00512402
0.00166644
0.00194279
-0.00293232
0.00291862
-0.00409367
0.0209809
0.00708627
0.0567956
0.00499544
-0.00935172
0.0144658
0.132285
0.0355564
0.00150721
0.287865
0.0395286
-8.1653e-05
-0.00034352
0.00232018
0
0.0157443
0.00202608
0.00321541
-0.00951567
-0.000720155
-0.0840305
-0.0240791
0
0.00161007
0.00160777
-0.00318965
-0.00490633
-6.26436e-05
-0.00682586
0.00129331
0.0354946
-0.00606821
0.0301806
-0.00308814
-0.00232233
0.00552729
0.0303174
0.0130783
-0.00467746
-0.00360379
0.00454025
0.0173696
0.0120029
-0.00558804
-0.00105322
0.00516632
-0.00197889
0.000895906
-0.00386533
0.006507
0.000817805
-0.0231192
0.011717
0.0275048
0.00140165
0.0032745
0.00237521
0
0.0140447
-0.00470249
-0.00205349
-0.0188573
-0.00870255
0.0047108
-0.00651739
0.0291953
0.000903854
0.0505185
0.0113943
0.00981845
-0.00134857
0.00346632
0.00307873
0.00558129
-0.0122571
-0.00707001
-0.00760436
0.00214864
0.0120671
0.0190684
0.00126462
0.00600526
-0.0174462
0.0107016
0.00296143
0.19741
-0.00166187
-0.0416937
-0.0143082
-0.0177064
0.0190957
-0.0056792
0.00321046
0.00121078
-0.00453841
-0.00322952
0.00618332
-0.00909026
0.00550182
-0.0012727
-0.00131661
-0.00760431
0.00290628
0.0195667
-0.00893725
-0.0526995
-0.0242314
0.00111985
0.0175112
-0.000658092
-0.00430629