# vtk DataFile Version 2.0
Unstructured Grid by M++
ASCII
DATASET UNSTRUCTURED_GRID
POINTS 4072 float
  0.656250   0.890625 0
  0.703125   0.640625 0
  0.640625   0.890625 0
  0.703125   0.625000 0
  0.640625   0.875000 0
  0.703125   0.671875 0
  0.640625   0.921875 0
  0.718750   0.656250 0
  0.656250   0.906250 0
  0.703125   0.656250 0
  0.640625   0.906250 0
  0.546875   0.718750 0
  0.531250   0.734375 0
  0.578125   0.765625 0
  0.562500   0.765625 0
  0.812500   0.796875 0
  0.718750   0.625000 0
  0.656250   0.875000 0
  0.734375   0.609375 0
  0.671875   0.859375 0
  0.718750   0.609375 0
  0.656250   0.859375 0
  0.734375   0.593750 0
  0.671875   0.843750 0
  0.578125   0.984375 0
  0.640625   0.734375 0
  0.515625   0.734375 0
  0.531250   0.718750 0
  1.000000   0.984375 0
  0.515625   0.718750 0
  0.859375   0.921875 0
  0.921875   0.671875 0
  0.843750   0.921875 0
  0.906250   0.671875 0
  0.843750   0.937500 0
  0.906250   0.687500 0
  0.546875   0.656250 0
  0.546875   0.578125 0
  0.671875   0.625000 0
  0.609375   0.875000 0
  0.546875   0.593750 0
  0.593750   0.984375 0
  0.656250   0.734375 0
  0.578125   0.609375 0
  0.515625   0.859375 0
  0.578125   0.593750 0
  0.515625   0.843750 0
  0.937500   0.640625 0
  0.875000   0.890625 0
  0.953125   0.625000 0
  0.890625   0.875000 0
  0.781250   0.578125 0
  0.718750   0.828125 0
  0.734375   0.812500 0
  0.578125   0.578125 0
  0.515625   0.828125 0
  0.562500   0.578125 0
  0.578125   0.562500 0
  0.515625   0.812500 0
  1.000000   1.000000 0
  0.859375   0.734375 0
  0.796875   0.984375 0
  0.984375   0.734375 0
  0.921875   0.984375 0
  0.968750   0.734375 0
  0.906250   0.984375 0
  0.984375   0.718750 0
  0.921875   0.968750 0
  0.859375   0.718750 0
  0.796875   0.968750 0
  0.921875   0.796875 0
  0.984375   0.546875 0
  0.562500   0.812500 0
  0.906250   0.796875 0
  0.921875   0.781250 0
  0.671875   0.687500 0
  0.609375   0.937500 0
  0.671875   0.671875 0
  0.609375   0.921875 0
  0.687500   0.671875 0
  0.625000   0.921875 0
  0.671875   0.734375 0
  0.609375   0.984375 0
  0.687500   0.734375 0
  0.625000   0.984375 0
  0.765625   0.578125 0
  0.703125   0.828125 0
  0.781250   0.562500 0
  0.718750   0.812500 0
  0.750000   0.578125 0
  0.687500   0.828125 0
  0.765625   0.562500 0
  0.703125   0.812500 0
  0.625000   0.968750 0
  0.687500   0.718750 0
  0.625000   0.953125 0
  0.687500   0.703125 0
  0.625000   0.937500 0
  0.687500   0.687500 0
  0.609375   0.968750 0
  0.671875   0.718750 0
  0.609375   0.953125 0
  0.671875   0.703125 0
  0.609375   0.890625 0
  0.671875   0.640625 0
  0.625000   0.890625 0
  0.687500   0.640625 0
  0.609375   0.906250 0
  0.671875   0.656250 0
  0.625000   0.906250 0
  0.687500   0.656250 0
  0.593750   0.765625 0
  0.937500   0.953125 0
  0.546875   0.750000 0
  0.546875   0.734375 0
  0.531250   0.750000 0
  0.937500   0.671875 0
  0.515625   0.937500 0
  0.953125   0.671875 0
  0.890625   0.921875 0
  0.875000   0.921875 0
  0.531250   0.671875 0
  0.515625   0.687500 0
  0.921875   0.703125 0
  0.859375   0.953125 0
  0.828125   0.656250 0
  0.953125   0.656250 0
  0.531250   0.921875 0
  0.890625   0.906250 0
  0.953125   0.640625 0
  0.890625   0.890625 0
  0.937500   0.656250 0
  0.875000   0.906250 0
  0.671875   0.593750 0
  0.609375   0.843750 0
  0.656250   0.593750 0
  0.593750   0.843750 0
  0.671875   0.609375 0
  0.609375   0.859375 0
  0.656250   0.609375 0
  0.593750   0.859375 0
  0.578125   0.750000 0
  0.515625   1.000000 0
  0.921875   0.578125 0
  0.859375   0.828125 0
  0.937500   0.796875 0
  0.953125   0.781250 0
  0.953125   0.734375 0
  0.890625   0.984375 0
  0.937500   0.734375 0
  0.875000   0.984375 0
  0.953125   0.796875 0
  0.968750   0.796875 0
  0.984375   0.796875 0
  1.000000   0.796875 0
  0.562500   0.796875 0
  0.578125   0.781250 0
  0.562500   0.781250 0
  0.578125   0.640625 0
  0.515625   0.890625 0
  0.562500   0.640625 0
  0.578125   0.625000 0
  0.515625   0.875000 0
  0.875000   0.703125 0
  0.812500   0.953125 0
  0.562500   0.609375 0
  0.562500   0.593750 0
  0.546875   0.609375 0
  0.562500   0.562500 0
  0.562500   0.546875 0
  0.546875   0.562500 0
  0.750000   0.609375 0
  0.687500   0.859375 0
  0.765625   0.593750 0
  0.703125   0.843750 0
  0.750000   0.593750 0
  0.687500   0.843750 0
  0.968750   0.656250 0
  0.906250   0.906250 0
  0.984375   0.640625 0
  0.921875   0.890625 0
  0.968750   0.640625 0
  0.906250   0.890625 0
  0.984375   0.625000 0
  0.921875   0.875000 0
  0.968750   0.625000 0
  0.906250   0.875000 0
  0.531250   0.984375 0
  0.796875   0.953125 0
  0.859375   0.703125 0
  0.781250   0.953125 0
  0.843750   0.703125 0
  1.000000   0.531250 0
  0.937500   0.781250 0
  0.953125   0.765625 0
  0.937500   0.765625 0
  0.953125   0.750000 0
  0.937500   0.703125 0
  0.875000   0.953125 0
  0.953125   0.687500 0
  0.890625   0.937500 0
  0.937500   0.687500 0
  0.875000   0.937500 0
  0.828125   0.640625 0
  0.828125   0.625000 0
  0.546875   0.687500 0
  0.546875   0.671875 0
  0.531250   0.687500 0
  0.953125   0.718750 0
  0.890625   0.968750 0
  0.953125   0.703125 0
  0.890625   0.953125 0
  0.984375   1.000000 0
  0.953125   0.515625 0
  0.531250   0.781250 0
  0.890625   0.765625 0
  0.890625   0.796875 0
  0.890625   0.781250 0
  0.562500   0.671875 0
  0.921875   0.656250 0
  0.578125   0.656250 0
  0.515625   0.906250 0
  0.562500   0.656250 0
  0.890625   0.750000 0
  0.828125   1.000000 0
  0.875000   0.734375 0
  0.812500   0.984375 0
  0.953125   1.000000 0
  0.750000   0.984375 0
  0.812500   0.734375 0
  0.984375   0.781250 0
  1.000000   0.781250 0
  1.000000   0.765625 0
  0.937500   0.718750 0
  0.875000   0.968750 0
  0.921875   0.718750 0
  0.859375   0.968750 0
  0.968750   0.531250 0
  0.546875   0.796875 0
  0.906250   0.781250 0
  0.984375   0.515625 0
  0.921875   0.765625 0
  0.906250   0.765625 0
  0.968750   0.781250 0
  0.984375   0.765625 0
  0.968750   0.765625 0
  0.984375   0.750000 0
  0.906250   1.000000 0
  0.968750   0.750000 0
  0.968750   0.718750 0
  0.906250   0.968750 0
  0.984375   0.703125 0
  0.921875   0.953125 0
  0.968750   0.703125 0
  0.906250   0.953125 0
  0.984375   0.687500 0
  0.562500   0.953125 0
  0.921875   0.937500 0
  0.968750   0.687500 0
  0.906250   0.937500 0
  1.000000   0.859375 0
  0.734375   0.531250 0
  0.671875   0.781250 0
  0.734375   0.546875 0
  0.671875   0.796875 0
  0.718750   0.546875 0
  0.656250   0.796875 0
  0.687500   0.921875 0
  0.750000   0.671875 0
  0.828125   0.812500 0
  0.828125   0.796875 0
  0.578125   0.812500 0
  0.578125   0.796875 0
  0.937500   0.859375 0
  0.703125   0.796875 0
  0.765625   0.546875 0
  0.718750   0.781250 0
  0.781250   0.531250 0
  0.687500   0.796875 0
  0.750000   0.546875 0
  0.703125   0.781250 0
  0.765625   0.531250 0
  0.609375   0.765625 0
  0.984375   0.828125 0
  1.000000   0.812500 0
  0.984375   0.812500 0
  1.000000   0.750000 0
  0.937500   1.000000 0
  0.953125   0.984375 0
  0.937500   0.984375 0
  0.609375   0.781250 0
  0.593750   0.781250 0
  0.593750   0.796875 0
  0.531250   0.609375 0
  0.515625   0.609375 0
  0.515625   0.562500 0
  0.875000   0.796875 0
  0.859375   0.812500 0
  0.609375   0.812500 0
  0.609375   0.796875 0
  0.593750   0.812500 0
  0.578125   0.671875 0
  0.515625   0.921875 0
  0.859375   1.000000 0
  0.921875   0.750000 0
  0.875000   1.000000 0
  0.937500   0.750000 0
  0.921875   0.734375 0
  0.859375   0.984375 0
  0.937500   0.921875 0
  0.593750   0.671875 0
  0.625000   0.609375 0
  0.562500   0.859375 0
  0.609375   0.609375 0
  0.546875   0.859375 0
  0.609375   0.671875 0
  0.546875   0.921875 0
  0.640625   0.671875 0
  0.578125   0.921875 0
  0.625000   0.671875 0
  0.562500   0.921875 0
  0.640625   0.625000 0
  0.578125   0.875000 0
  0.500000   0.906250 0
  0.078125   0.125000 0
  0.500000   0.796875 0
  0.078125   0.015625 0
  0.484375   0.843750 0
  0.468750   0.828125 0
  0.750000   0.234375 0
  0.062500   0.828125 0
  0.484375   0.562500 0
  0.296875   0.546875 0
  0.234375   0.796875 0
  0.281250   0.531250 0
  0.218750   0.781250 0
  0.296875   0.562500 0
  0.234375   0.812500 0
  0.281250   0.546875 0
  0.218750   0.796875 0
  0.265625   0.625000 0
  0.953125   0.046875 0
  0.281250   0.640625 0
  0.031250   0.546875 0
  0.500000   0.984375 0
  0.078125   0.203125 0
  0.484375   0.984375 0
  0.062500   0.203125 0
  0.718750   0.125000 0
  0.031250   0.687500 0
  0.703125   0.109375 0
  0.328125   0.625000 0
  0.343750   0.812500 0
  0.406250   0.562500 0
  0.687500   0.031250 0
  0.500000   0.859375 0
  0.468750   0.906250 0
  0.046875   0.125000 0
  0.468750   0.937500 0
  0.046875   0.156250 0
  0.062500   1.000000 0
  0.015625   0.546875 0
  0.812500   0.109375 0
  0.375000   0.812500 0
  0.437500   0.562500 0
  0.359375   0.796875 0
  0.421875   0.546875 0
  0.343750   0.781250 0
  0.406250   0.531250 0
  0.328125   0.687500 0
  0.500000   0.968750 0
  0.078125   0.187500 0
  0.031250   0.609375 0
  0.718750   0.031250 0
  0.031250   0.593750 0
  0.718750   0.015625 0
  0.703125   0.015625 0
  0.031250   0.515625 0
  0.046875   0.531250 0
  0.359375   0.687500 0
  0.375000   0.703125 0
  0.484375   0.750000 0
  0.046875   0.984375 0
  0.328125   0.656250 0
  0.343750   0.593750 0
  0.328125   0.578125 0
  0.265625   0.828125 0
  0.000000   0.515625 0
  0.500000   0.765625 0
  0.015625   0.531250 0
  0.468750   0.984375 0
  0.046875   0.203125 0
  0.375000   0.625000 0
  0.343750   0.703125 0
  0.468750   0.968750 0
  0.046875   0.187500 0
  0.359375   0.625000 0
  0.296875   0.875000 0
  0.734375   0.390625 0
  0.359375   0.718750 0
  0.015625   0.593750 0
  0.812500   0.156250 0
  0.750000   0.406250 0
  0.375000   0.734375 0
  0.453125   0.750000 0
  0.468750   0.875000 0
  0.046875   0.093750 0
  0.296875   0.812500 0
  0.484375   0.968750 0
  0.062500   0.187500 0
  0.296875   0.781250 0
  0.031250   0.968750 0
[...]
POINT_DATA 4072
SCALARS scalar_value float 1
LOOKUP_TABLE default
0.0170607
0.173655
0.017653
0.138594
0.0464603
0.260506
0.000542669
0.0765909
0.00479662
0.214861
0.00460892
0.400959
0.466992
0.48589
0.465589
6.43777e-06
0.0449994
0.0437078
-0.0104017
0.0830836
0.0369689
0.089621
-0.00900833
0.148611
-2.15349e-05
0.445276
0.464741
0.433823
0
0.435012
1.92048e-08
-1.07536e-07
-5.85326e-08
2.62419e-07
-7.46712e-08
2.48392e-07
0.246897
0.06147
0.110916
0.0529909
0.082933
-1.32398e-05
0.435951
0.0137555
0.116166
-0.000822254
0.190599
3.73433e-08
-1.73659e-08
-2.00462e-09
4.42142e-09
-0.000711666
0.0131132
-0.00456827
-0.00797037
0.2762
0.0569578
-0.0108366
0.353882
0
1.68626e-06
3.41467e-08
4.7496e-09
-8.87711e-10
-8.43392e-09
1.58077e-09
4.85045e-09
1.13138e-09
1.36876e-06
7.44269e-08
-2.21094e-08
1.35719e-09
0.369334
4.23888e-07
-5.89349e-08
0.285721
-0.000326196
0.237711
0.000364974
0.261092
0.000470616
0.414175
-1.85313e-05
0.444765
-1.51917e-05
0.00120941
0.0857593
-0.0006383
0.0315903
-0.00027636
0.188393
0.000943829
0.152712
-7.61846e-05
0.407649
-0.000160843
0.361665
-0.000230144
0.312208
-9.3384e-05
0.377635
-0.000222812
0.334327
0.0202296
0.148315
0.019332
0.163647
0.00512281
0.191103
0.00498243
0.210887
0.511156
5.27496e-10
0.477779
0.438855
0.489099
3.24304e-08
-0.000110198
-3.13353e-10
2.75896e-09
-5.77471e-09
0.291407
0.34958
-1.15029e-07
-3.54472e-08
-4.79609e-05
3.02536e-09
0.000592812
1.21086e-09
2.6861e-09
1.4338e-08
2.79034e-08
-9.9054e-09
0.0542213
0.186041
0.0239102
0.191846
0.0799645
0.108304
0.0547162
0.112341
0.206512
0
1.27301e-07
-4.66167e-07
-3.80116e-08
1.95143e-08
3.6341e-09
-2.55235e-09
3.3582e-08
3.68786e-09
1.71245e-08
-5.47075e-09
1.56646e-09
-6.22368e-10
0.455619
0.462113
0.48034
0.0556053
0.0226149
0.1736
0.0325514
0.0588078
-6.30263e-07
2.42676e-07
0.104038
0.0773521
0.111143
0.0426867
0.0329056
0.0452612
-0.00116802
0.0526132
0.0015144
0.0395674
-0.0007483
0.108266
-8.33275e-09
-2.088e-10
6.94755e-09
0
-9.68384e-09
-2.10013e-09
6.26917e-09
-9.96532e-09
-6.1942e-09
-1.84703e-08
9.13121e-06
1.0182e-07
5.15689e-07
6.03456e-07
1.0669e-05
-2.22504e-09
-1.64285e-08
1.41269e-08
1.00908e-08
8.25864e-09
3.64563e-08
1.59895e-08
-4.02269e-10
2.55315e-09
3.40724e-08
-8.44621e-09
-4.15422e-05
-2.87335e-05
0.33525
0.299375
0.343215
7.06596e-10
5.38297e-09
-5.84551e-10
-6.96122e-09
0
8.94267e-09
0.459739
-3.61261e-07
-8.60771e-08
-1.22781e-08
0.216213
-1.13667e-07
0.0778767
0.0062911
0.208197
-4.09278e-07
0
-8.94721e-07
-1.33153e-08
0
1.72177e-07
9.05691e-05
3.10722e-09
-1.5098e-09
-2.16945e-09
3.67876e-08
-1.05652e-08
-1.22398e-07
1.92782e-08
-2.26607e-10
0.439536
3.18195e-07
5.6533e-10
-1.11593e-07
3.86828e-07
-8.88947e-09
4.06693e-09
-9.75154e-09
4.54275e-09
0
-9.31368e-09
-7.64225e-09
-2.56392e-09
4.98166e-09
-1.2738e-09
-7.11575e-09
3.01447e-09
5.28566e-09
-0.000215197
0
-7.19074e-09
-6.72973e-10
0
-0.00621891
0.428175
-0.00661747
0.382338
0.0283414
0.397652
0.000205038
-0.00650391
-1.44673e-06
-9.14154e-06
0.377815
0.464266
-1.84774e-09
0.230654
0.000777327
0.0903098
-0.000518771
0.371413
0.000201556
0.306489
0.000557708
0.426061
-1.57704e-10
0
3.66651e-10
-2.58713e-09
0
-2.17959e-10
4.5572e-10
0.489595
0.474961
0.452224
0.10782
0.12167
0.0517947
-8.73481e-08
-1.3399e-07
0.373328
0.446612
0.381202
0.0916591
0.000126557
0
-1.23884e-07
0
2.52289e-08
-1.26492e-07
-4.4424e-09
-1.49735e-10
-0.0209861
0.0840633
0.115128
0.0702914
0.11585
0.104075
0.000351675
0.301159
0.000412142
0.199112
0.000466058
0.141911
0.056689
0.00693815
5.48367e-10
0.419448
0
0.19146
0.297758
0.000133945
-1.97627e-09
0.0527016
-0.0157689
0.00152507
-0.00370029
-0.000198542
-0.0338636
0.00108526
-0.000781963
-0.000265263
-0.00191789
-2.78683e-09
-0.00471949
-3.97994e-08
4.2654e-05
4.17475e-08
5.2923e-06
-1.2665e-08
2.38026e-05
-3.39675e-09
-1.45488e-05
0.123619
0.319392
-0.0382451
-2.67707e-06
0.129885
0.00494278
3.89704e-09
-0.000762622
5.30069e-09
0
1.78808e-08
-9.47018e-07
0.473678
0.0407896
0.444974
0.00229761
0.443031
-0.0272865
0.306157
-0.000266751
3.56163e-08
-1.30264e-08
8.56578e-06
-5.57453e-09
6.04774e-06
-6.62872e-07
-2.10191e-08
-4.69231e-08
0.359666
0.37286
0.479249
-2.97776e-10
0.214063
0.0468987
0.0757072
-0.00312721
-7.56279e-09
0.4787
0
-2.05766e-05
5.66178e-09
0.123937
0.351273
-0.000153071
6.04932e-09
0.133464
0.00472023
-0.00100477
0.47182
5.53944e-09
1.04323e-05
0.00128634
0.431944
0.484656
0.0606864
2.76892e-10
0.16081
-0.000185871
-2.07413e-09
0.292188
0
0.0580396
0.279832
0.0293088
-4.59459e-06
-1.33841e-06
0.453919
0
0.00125825
-2.68733e-09
0.0924486
0.00011157
3.621e-09
0.0673666
-0.0415695
-0.00212948
0.361619
0.0250696
1.62247e-09
0.231365
0.0433753
0.130391
0.0643681
0.0346583
-3.10292e-05
-3.25668e-09
0.0151138
0.0106028
0.085217
0.0658919
3.61384e-09
0.515762
-3.77992e-05
-2.68468e-09
0.424519
0.0137244
0.104335
-0.00813966
-0.0131539
0.00640623
-0.00804778
-0.007855
0.0285316
-3.65401e-09
-0.00493785
0.182816
-0.000913354
0.00100939
1.63894e-08
-7.30241e-07
-0.00591494
0.106836
-2.55107e-05
-9.60468e-10
-4.54744e-10
1.30935e-06
0.331807
0.000133271
1.34177e-09
0.0177539
0.0204921
0.477289
-1.3894e-06
1.24506e-05
0.0652173
0.000512412
-0.000101001
-2.08138e-05
0
-0.000262073
0.354006
-3.06134e-10
-0.000335037
1.18221e-05
-8.50957e-10
-2.18332e-05
0.000585864
2.23148e-05
0.000118633
0.00147301
0
0.314452
-0.00530079
3.42813e-06
1.51237e-05
1.22862e-05
-0.000433102
5.37689e-09
-0.000206374
-6.65727e-09
-1.00164e-06
-1.14661e-05
-1.18587e-08
-4.19511e-07
0.286495
0
0.442035
1.05126e-10
-1.97746e-09
0.350237
1.93605e-10
-0.000624098
0.000868284
0.477387
0.0347174
0.513096
1.7065e-08
-1.30685e-05
2.0031e-05
1.53635e-05
0.039576
0.454504
0.0126477
0.030032
-4.23627e-09
-0.000236068
0.000275225
0.224292
0.124247
0.000278257
0.000482655
0.242363
0.237898
0.0115729
0.0268888
4.56396e-09
-5.20921e-07
8.75444e-08
1.52957e-07
7.02042e-05
0.000629976
0.0671904
0.467531
8.77938e-06
-1.10685e-05
-0.0493853
8.77253e-09
-1.06487e-08
1.03113e-05
-1.83935e-08
5.02577e-08
4.00513e-08
-2.93887e-05
1.53461e-09
4.79909e-06
-1.92394e-09
-9.38938e-06
2.2411e-09
0.00010807
-2.63168e-08
-2.55758e-09
-0.000299758
4.56694e-08
-8.0051e-06
1.3478e-09
1.46058e-07
-3.11031e-08
8.44268e-05
-4.11362e-07
8.11152e-08
-7.52297e-08
6.32011e-05
0.000159896
0.00280045
1.62896e-06
-1.16806e-08
-0.00778541
-1.78891e-06
2.99289e-09
-0.00592914
2.435e-06
3.12356e-09
0.0427142
0.0605095
-0.00557195
0.0364536
-1.43978e-08
-2.90548e-06
-0.000524435
-0.00120337
0.210859
0.120912
-2.38192e-07
-1.29333e-07
-2.27465e-07
1.97894e-07
-7.48324e-08
1.92161e-07
0
0.330616
0.0825462
-9.66014e-10
-0.000961071
6.47111e-05
0
0
-7.7548e-05
0.461289
0.40287
1.8595e-07
0
1.15867e-10
2.82722e-05
-4.80143e-05
0.501126
0.480426
-9.91707e-05
-1.64495e-05
-3.28866e-05
4.00738e-05
2.73771e-08
1.36806e-06
-9.67772e-05
-3.49968e-05
1.351e-07
9.58763e-09
-8.8865e-06
4.81065e-06
-1.7905e-10
0.00294291
-4.30529e-07
-4.2367e-09
1.86172e-08
1.88053e-07
7.15174e-10
0.00232112
0.000324028
0
-4.16285e-05
0.433649
0.333597
0.514287
-0.00649008
0.497486
0.429828
3.51253e-05
5.57294e-09
-0.00010302
0.0003418
-3.08165e-09
6.66355e-05
-6.40056e-09
-1.72901e-05
1.48052e-09
-0.000230462
1.19825e-09
-0.000161016
0.000836151
-0.06677
0.133325
0.00245022
-1.47404e-07
3.1535e-09
0.00229435
0
-1.1005e-08
-0.0114947
4.99924e-06
0
3.46706e-08
0.378259
-0.00103496
0.0873912
0
-8.55314e-09
-0.0139651
0
3.98461e-05
-0.0144924
0.173713
0.34305
-4.04565e-05
-5.38435e-10
-1.23733e-08
3.9978e-07
0.340553
2.76388e-09
2.52001e-05
-0.0482956
2.05744e-09
0.000225379
0
8.49811e-06
-0.000761628
0.00898876
0.0073117
-1.07184e-07
2.42031e-09
0.285086
-0.000857399
-5.64502e-05
-0.000276842
-0.0007054
1.74411e-06
1.8828e-06
-1.94516e-08
-5.14661e-05
-7.48271e-08
-2.24976e-05
5.00691e-10
0.471174
-0.000595256
0.0250949
-4.59295e-05
-0.000294569
-0.00050708
0.000128648
-4.04629e-05
-0.000198269
-4.70644e-06
7.56452e-08
0.00407353
5.34712e-05
-0.000552806
-5.95538e-09
0.00182778
0
3.93018e-05
2.5026e-08
0.001921
0.189392
7.00588e-06
-6.69331e-08
0.0292414
4.2321e-09
0.00127752
5.69488e-08
-5.95664e-07
-5.41919e-09
0.00111044
5.05016e-09
0.000817396
-5.02058e-09
-0.000332973
0.000513933
-5.13481e-08
-2.71936e-07
-9.08732e-08
-0.00040123
1.29396e-09
0.365008
6.21054e-08
0.000226975
-1.5097e-10
0.359474
7.21215e-08
-3.06019e-10
0.278772
-4.37691e-08
0
-7.26949e-07
3.34701e-08
0.00623676
0.00463102
-6.98012e-09
-1.55292e-05
-2.90711e-06
-4.93539e-07
-5.59029e-05
-6.56302e-06
0.358035
0
-6.65603e-05
-1.56654e-07
4.86164e-06
0.00259347
-1.45439e-06
-1.46681e-07
-0.000238452
-0.00286499
0.411592
-1.88741e-08
-7.60309e-08
-0.00249404
-3.54067e-07
-0.000821428
-1.02733e-05
-5.57087e-07
-0.000490892
1.17977e-07
9.18743e-07
-2.15138e-08
-1.34917e-05
2.38263e-07
-0.000167762
-3.42527e-05
0.0926396
2.58735e-06
0.00676584
0.00015126
1.58447e-05
0.00412574
-3.7334e-05
8.25961e-08
-9.54903e-08
1.27155e-08
-3.6429e-06
1.59483e-06
-1.72409e-08
-8.37844e-05
0.279695
3.50202e-06
-1.03858e-06
-6.89511e-06
-1.55276e-05
-1.14529e-08
-1.79413e-09
0.139263
-6.41065e-06
-4.11705e-07
0.000321072
-6.76166e-05
0.00588363
4.7301e-09
5.66564e-06
2.39803e-07
1.0882e-08
0.0575298
4.18757e-08
5.57669e-07
1.9835e-07
0.000868297
5.23485e-09
-5.85686e-08
-3.88349e-07
-5.47082e-09
-4.46112e-06
-1.69245e-07
-8.99811e-10
-0.000330595
6.48498e-09
0.0581353
0.00111381
0
-7.83479e-07
2.05641e-07
0.000280589
2.68422e-06
1.87075e-07
0.000506006
-0.00187995
0.294809
-3.39829e-06
-5.57493e-07
-0.00128607
7.3712e-08
-6.6878e-06
-5.38571e-07
-0.000276184
-1.57626e-05
1.07357e-05
-0.000146014
-1.35117e-06
-1.65203e-05
-1.65234e-08
-1.68435e-05
1.88134e-06
6.48764e-07
0.0159018
-2.9338e-05
-4.06691e-09
1.00227e-05
0.0282672
-2.09338e-07
-2.24464e-05
-1.1269e-07
-5.59235e-09
-9.33586e-06
0.000681335
-1.13659e-05
4.72662e-09
-3.88442e-08
3.54789e-06
0.00288049
-0.00170963
6.29439e-06
2.80375e-10
0.00125253
1.34767e-07
-0.000344973
8.24178e-07
-0.00555124
1.17156e-07
0.00040684
4.38808e-07
1.63909e-07
-1.17514e-10
0.204305
5.721e-05
-0.00281445
0.0442401
-3.71261e-05
0.00356247
-9.73633e-07
0.00972238
-1.65041e-06
0.282261
1.32534e-06
1.52069e-07
2.93171e-07
-0.00682907
1.72401e-07
-9.56036e-05
0.000956946
-0.00105541
-1.72227e-09
0.000720628
-4.01891e-07
-0.000859441
-1.3712e-09
0.000339523
-0.00777764
-0.00044641
-8.07626e-07
0
0
-4.71581e-05
2.82567e-06
3.304e-05
1.31634e-05
0.313354
3.31066e-06
-6.58477e-06
-1.96546e-07
1.68459e-05
2.99065e-09
0.151428
1.30518e-08
-3.19565e-09
0.161864
0.000428392
1.72571e-06
-0.000284823
7.40457e-06
-4.68181e-06
-6.03007e-08
-1.46355e-08
-3.46815e-08
0.000205102
3.03343e-08
-2.4991e-05
-3.87274e-08
-0.000159629
-1.27626e-08
-2.0178e-07
-2.87069e-08
0.114251
-0.000111957
0.000110092
1.32295e-08
0.000261248
0
0.431566
-1.50991e-07
5.25311e-08
-0.000232706
1.58387e-10
0.475292
7.71344e-07
-6.18883e-08
0
0.425539
-3.31474e-08
0.000127516
0
4.34251e-08
0.378063
0
-6.06576e-05
-1.92896e-06
2.50426e-07
0.411199
1.03143e-10
1.23396e-05
8.65011e-08
1.17578e-06
-5.0747e-05
-9.68757e-07
-2.15857e-07
0
-2.32824e-06
-7.93586e-07
-6.58104e-05
-1.00648e-07
3.02201e-07
-3.2231e-05
0.0551282
1.15177e-05
2.12555e-05
1.25035e-05
0.0860469
-1.99566e-07
-5.27324e-07
3.31124e-05
-0.000166034
0.000189023
-0.000141083
-1.72708e-08
0.0120587
0.476422
1.56059e-05
0
9.81182e-09
0.00999547
0.478515
-3.11188e-05
-0.00209591
0.000143657
0.0103019
1.42013e-05
2.73722e-08
-3.86241e-08
0
0.0350022
-2.17851e-08
3.31056e-10
0.273145
2.4753e-08
0.0993113
2.01082e-07
0
8.55865e-07
0.000562012
-0.000576565
0.000453462
-0.00956973
-0.000502419
0
-8.24709e-05
2.45226e-08
0.000382839
-6.35651e-05
0
7.64502e-06
4.91618e-05
4.2387e-05
-0.00601249
0.019167
-2.82192e-05
6.84262e-07
2.72608e-09
-6.62139e-06
0.0610341
3.12348e-07
2.39652e-07
0.00846063
1.04832e-05
0.00591133
-1.63032e-05
3.6085e-09
-0.000255128
5.86176e-09
0.00510032
0.387906
-8.82718e-06
-3.2661e-08
0.00461363
4.48736e-06
5.01383e-08
-2.00509e-08
2.18295e-08
0.0186839
-1.71683e-08
0.000300907
3.47822e-08
2.91387e-05
-1.06017e-08
0.000104245
0.000783731
0.000114027
-0.000416984
4.68081e-08
-1.82707e-07
0
0.00335062
0.43941
8.06491e-05
1.50776e-07
-3.1899e-09
0.000223099
3.09475e-07
-1.78617e-05
0.0124231
0.498363
-1.26143e-05
0
4.91608e-08
7.90024e-08
0.000118371
-8.22542e-07
0.000618999
-4.17304e-06
1.59835e-07
-1.42265e-07
0.000820391
1.95785e-05
3.25619e-08
0.0379128
3.17156e-06
-0.000140208
-4.36938e-05
1.55345e-09
0.0271753
-0.000309187
-1.59919e-08
-6.64561e-06
-9.02129e-08
-0.000144387
-2.03445e-06
-0.00015949
-0.000220062
-7.2156e-08
0.00057607
0.00019648
2.44758e-07
0.0505473
-2.52673e-07
0.435206
-6.83855e-06
-0.000224833
0.00839367
0.0152366
2.76719e-07
0.000127753
-4.3247e-07
2.14605e-07
0.103607
-0.000383078
-1.74665e-07
-6.94828e-06
0.0156478
1.72008e-06
0.0069145
-2.15736e-06
8.9336e-07
-0.0511273
1.12448e-06
-0.000374986
-2.5271e-06
-1.36508e-07
0.000160481
1.86664e-07
0.00557741
1.06649e-05
-3.38349e-06
-5.33917e-07
1.26416e-08
-1.35499e-08
1.88497e-07
7.81882e-09
-2.24655e-05
9.08515e-06
1.68519e-05
0.000191174
5.78437e-05
3.63119e-05
-2.49095e-05
0.0589407
8.17963e-08
0.000425155
-4.90513e-10
0.189969
0.00662996
2.92719e-05
-1.19917e-09
-5.74672e-05
5.29643e-06
0.000244892
-0.000933262
0.147517
8.01037e-06
0.000317123
-2.48246e-08
1.39382e-09
-2.4354e-08
7.26317e-07
8.85012e-10
0.119282
5.43125e-10
0
0.204631
2.95309e-08
-7.90915e-05
0.00588832
-2.16698e-05
7.71252e-07
-8.30239e-09
-2.47216e-08
0.147915
-2.40741e-08
-2.51786e-09
0.00498588
-7.45042e-07
9.58481e-05
-0.000447055
0.000860781
0.00501386
0.00181061
1.02722e-07
2.72391e-06
2.08562e-08
3.33077e-05
-6.83624e-05
-6.03267e-05
-0.000264955
-0.00114682
2.26497e-08
0.00446587
0.010532
0.00128203
3.41479e-05
3.42618e-05
0.00636815
0.0043815
0.255388
1.88744e-05
0.01013
-1.24329e-05
-0.000126107
-1.80912e-06
-0.000340017
-8.34387e-05
-0.000117011
-0.000266346
6.05497e-05
0.000423447
0.0070119
6.92018e-05
0.000543319
0.392572
0.000485148
0.000541286
7.80899e-05
0.00027614
-2.2761e-08
-5.99408e-09
-9.45518e-05
0.00299674
0.00749687
-8.63067e-06
0.000482611
-2.55944e-09
0.0631712
-2.6967e-07
0.00682266
-3.86781e-05
-0.0035134
0.0192281
2.98533e-06
-1.4424e-05
2.20295e-07
-5.518e-09
-7.0399e-06
-1.2427e-07
3.51481e-06
-0.000197119
0.0137427
-2.14515e-06
0.435058
0.102011
-6.24262e-06
-0.00698473
-6.93287e-07
0.0195426
-3.20001e-07
2.25096e-09
9.74772e-07
-2.13264e-06
6.62489e-09
-7.76426e-07
-7.65701e-07
0.313614
-0.000205047
1.52203e-07
0.000400874
1.03775e-05
1.88384e-07
0.000410486
-0.00018917
7.06849e-06
1.59304e-05
-1.82806e-09
-0.000149644
-0.000315232
-1.52734e-05
8.06296e-09
-0.00049098
-1.97892e-05
-1.47049e-10
-5.60914e-08
-5.88875e-07
4.62873e-08
5.70905e-10
-9.70826e-05
-7.45412e-10
3.2308e-08
-2.48749e-05
-3.584e-07
0.000153122
0.448782
-1.921e-05
0
-2.14798e-06
-1.17178e-06
1.00018e-05
0.00287498
0
-4.85254e-08
-3.63933e-05
0
6.3269e-10
-0.00014912
-4.03031e-09
-5.90478e-08
-0.000288707
-2.80382e-08
2.78288e-08
-2.27631e-07
-0.000104849
-7.50247e-09
-0.00212464
-5.55166e-07
-7.61971e-08
0.00213686
-3.78991e-08
-0.000297027
-2.28383e-07
-7.35711e-08
4.35412e-07
0.000322718
5.45078e-08
-0.000392612
-1.01862e-07
-3.43296e-07
-1.44604e-08
-5.09783e-06
-0.00177248
-0.000355255
-4.32273e-05
0.000322223
0.0832159
1.38659e-05
0.0145011
0.0447792
0.000161023
0.109411
7.79696e-05
-0.000304393
0.152889
0.000190456
1.05334e-07
0.000158124
-3.7208e-05
0.000744946
-0.000226506
1.47917e-08
1.64364e-08
-1.58994e-07
-0.000888565
-2.21014e-08
0.194583
0.000901761
-0.000220824
0
0.00160221
0.242226
0.000191566
9.85029e-08
0.000722091
-0.00011869
0.0965054
-0.000507821
-0.0525335
-0.000109976
6.18776e-05
0.000219221
0
-2.42646e-07
-0.000185442
3.05687e-08
0
-7.91616e-09
-8.57186e-08
0.000535359
3.83371e-07
-3.82426e-07
0.168034
-0.00193557
-9.3245e-06
5.22553e-07
-1.15095e-09
-4.99987e-05
-4.49287e-07
4.63699e-07
-2.36846e-07
0.420184
-2.03813e-07
0.466848
3.92226e-07
-3.89835e-05
0.0136219
-1.60746e-06
4.5033e-07
2.38503e-10
-1.78052e-07
-2.36361e-08
-3.37909e-07
1.88081e-05
5.14221e-05
5.85854e-08
-2.45461e-09
-6.46287e-07
0.00296385
-1.09595e-07
-1.11281e-06
0
0.459562
0
-4.67557e-05
-1.8056e-06
4.53358e-08
-9.58618e-05
4.44248e-05
-0.000415877
0.463551
4.87571e-05
0.0117695
-2.15641e-05
-1.54355e-05
5.0782e-08
-0.000867692
4.25345e-08
0.285001
0.0003435
0.000116845
-0.00142175
7.95385e-05
1.76911e-07
0.00017864
0.0288902
2.96519e-07
0.445545
-0.00718402
-7.7288e-07
3.13605e-09
6.59913e-08
9.57253e-09
9.18371e-05
-3.01872e-05
0.00035215
6.05129e-05
5.60295e-05
-5.07713e-07
-3.60616e-05
-0.000239277
4.27788e-06
-0.000430352
-0.000265514
-4.13257e-08
-0.000283319
3.23658e-08
-2.10649e-07
-0.00129048
-7.56797e-09
1.11464e-07
0.519839
-1.78823e-05
0
-0.000441565
-0.00348314
1.17857e-07
0.475589
-0.000117318
-2.31284e-07
-4.54195e-07
-8.39414e-07
0.00228809
-2.82484e-05
1.63607e-08
6.04756e-08
1.98568e-08
-6.05132e-09
-3.42492e-05
-3.54481e-08
-6.20151e-05
6.66666e-09
4.66569e-09
6.93546e-09
0.000101157
-2.45354e-08
0
-0.000142593
-0.000223479
-2.03922e-08
0.431032
5.09568e-06
-2.6064e-06
-0.000124188
0.0905319
-5.1095e-05
-0.000143724
0.0571232
-0.000175537
1.52444e-06
-0.000119438
-7.28127e-08
1.2648e-05
3.40146e-08
2.56575e-05
0.00335108
0.000128237
1.47948e-07
-2.09284e-07
1.03463e-09
0.497227
-6.22623e-05
-3.65875e-07
0.0041044
2.05463e-08
3.02165e-08
-3.66327e-08
0.0105093
-0.00127254
0.00249186
3.05169e-05
-2.43656e-07
1.34826e-07
0.433636
0
0.48897
1.60233e-10
-3.933e-05
-6.16364e-07
2.01851e-08
4.53075e-09
0.000120504
-6.37205e-09
-0.000149095
0.00796863
2.50904e-05
-1.68417e-08
0
8.47985e-10
4.63303e-09
0.000530944
0.00114669
-3.80535e-09
1.10148e-07
0.000736229
8.70282e-05
8.48886e-05
6.25489e-05
9.5793e-07
-5.18637e-07
-4.64507e-08
-0.0339054
-6.24023e-05
-0.001747
0.390797
-0.000244684
-2.04164e-08
3.70816e-06
-0.000618016
-0.000147551
-6.14992e-05
-5.4619e-05
9.87453e-08
2.34836e-06
2.65395e-07
1.00423e-07
-0.000333749
0.00192405
-6.42922e-08
1.11696e-05
-0.0105523
2.95067e-05
-0.000164515
-1.03979e-07
1.56975e-05
3.87704e-07
4.85676e-08
-8.79673e-06
0.00141952
-5.07982e-09
-0.000244388
-8.38987e-09
-3.4764e-05
-0.00269766
-4.31722e-06
-0.00171923
-5.42606e-05
0.00510084
2.62778e-06
-3.79221e-08
0
0.429771
-1.1692e-09
0.195629
0.000106597
-5.00905e-08
-1.97706e-05
-2.55184e-08
-3.81453e-08
5.25309e-05
0.00139148
0.000354469
0.000111807
-5.3664e-05
-0.000195814
0.000473471
4.57478e-05
0.000279608
0.000189712
-4.61201e-05
-0.00543388
-0.0001293
5.4343e-10
-0.000215822
6.98534e-05
-1.23437e-08
0.00569544
-1.67848e-08
1.15926e-07
0.415967
-1.1496e-05
-3.8808e-08
1.09127e-08
-3.49709e-05
-1.26549e-10
9.92168e-09
-5.83844e-08
1.01627e-07
-1.51238e-09
0.0575766
0.000399646
0.435241
-2.83763e-05
0
0.000158278
-6.06311e-06
-7.13531e-10
3.16821e-08
-8.62818e-09
0.00531268
-4.78079e-09
0.0014635
3.56139e-06
1.0793e-05
-2.92446e-05
-1.38485e-05
-9.00932e-05
-0.000268262
-8.44591e-06
-8.61561e-06
-3.52943e-05
4.8333e-05
-0.000178541
-1.06927e-08
-2.24184e-08
-2.82686e-08
-4.55379e-05
0.00127077
4.66054e-09
-6.1457e-05
-3.03263e-06
-5.95054e-05
9.58199e-06
0
-4.32658e-07
1.09061e-08
5.11076e-06
5.57883e-08
1.67702e-08
-3.03511e-05
1.69489e-05
-6.20125e-05
4.42194e-09
2.53907e-06
3.88602e-09
5.3038e-05
0.000130907
3.47806e-06
5.11841e-08
0
1.07602e-07
0.000102321
2.83941e-09
-8.37829e-07
-8.41342e-09
-4.78822e-09
0.000638233
0.000877333
-0.00123719
0.46557
8.01951e-06
0
-6.92782e-05
0.34453
1.73362e-07
-1.92413e-07
4.30147e-09
0.0223863
-0.00018986
0.000231357
2.22896e-07
0.0413872
0.000183205
0.158846
0.000109147
-1.45698e-05
5.06538e-06
8.63661e-08
0.000382221
3.25907e-09
8.07397e-06
4.39261e-05
0.321534
-0.000152791
1.57139e-07
-1.46745e-07
5.33141e-09
-0.00100936
6.51207e-08
-8.30473e-08
0.000111599
0.000612892
0.000309504
3.81293e-08
2.01521e-08
0.00103547
1.20227e-06
-1.31335e-05
0.37921
4.76255e-05
0
-8.82279e-06
-0.00201803
9.92267e-08
0.00537535
2.62153e-07
-0.000332212
-1.81539e-08
0.286976
-1.22705e-07
-0.000111538
-0.000355985
0.000926734
0.00669443
0.00407704
-3.60308e-05
-5.0823e-09
-1.09742e-05
2.13258e-05
-0.000171773