# vtk DataFile Version 2.0
Unstructured Grid by M++
ASCII
DATASET UNSTRUCTURED_GRID
POINTS 4072 float
  0.828125   0.890625 0
  0.875000   0.531250 0
  0.828125   0.750000 0
  0.593750   0.968750 0
  0.828125   0.671875 0
  0.828125   0.875000 0
  0.593750   0.937500 0
  0.828125   0.656250 0
  0.828125   0.640625 0
  0.828125   0.843750 0
  0.593750   0.906250 0
  0.828125   0.625000 0
  0.781250   0.968750 0
  0.828125   0.609375 0
  0.828125   0.812500 0
  0.593750   0.875000 0
  0.593750   0.828125 0
  0.593750   0.796875 0
  0.828125   0.703125 0
  0.593750   0.765625 0
  0.828125   0.937500 0
  0.812500   0.875000 0
  0.859375   0.515625 0
  0.812500   0.734375 0
  0.812500   0.937500 0
  0.578125   1.000000 0
  0.578125   0.750000 0
  0.812500   0.687500 0
  0.578125   0.953125 0
  0.812500   0.656250 0
  0.812500   0.859375 0
  0.578125   0.921875 0
  0.812500   0.828125 0
  0.578125   0.890625 0
  0.812500   0.593750 0
  0.812500   0.796875 0
  0.578125   0.859375 0
  0.578125   0.812500 0
  0.578125   0.781250 0
  0.796875   1.000000 0
  0.796875   0.859375 0
  0.796875   0.718750 0
  0.562500   0.984375 0
  0.562500   0.937500 0
  0.796875   0.843750 0
  0.562500   0.906250 0
  0.796875   0.812500 0
  0.562500   0.875000 0
  0.796875   0.578125 0
  0.796875   0.781250 0
  0.562500   0.843750 0
  0.812500   0.984375 0
  0.562500   0.796875 0
  0.812500   0.953125 0
  0.562500   0.765625 0
  0.796875   0.937500 0
  0.546875   0.750000 0
  0.781250   0.984375 0
  0.828125   0.593750 0
  0.781250   0.843750 0
  0.781250   0.937500 0
  0.546875   1.000000 0
  0.781250   0.703125 0
  0.546875   0.968750 0
  0.546875   0.921875 0
  0.781250   0.828125 0
  0.546875   0.890625 0
  0.781250   0.796875 0
  0.546875   0.859375 0
  0.781250   0.562500 0
  0.781250   0.765625 0
  0.546875   0.828125 0
  0.796875   0.968750 0
  0.546875   0.781250 0
  0.765625   1.000000 0
  0.765625   0.968750 0
  0.531250   0.984375 0
  0.765625   0.687500 0
  0.531250   0.953125 0
  0.531250   0.937500 0
  0.531250   0.906250 0
  0.765625   0.812500 0
  0.531250   0.875000 0
  0.765625   0.781250 0
  0.531250   0.843750 0
  0.781250   1.000000 0
  0.765625   0.546875 0
  0.765625   0.750000 0
  0.531250   0.812500 0
  0.781250   0.953125 0
  0.531250   0.765625 0
  0.515625   0.750000 0
  0.750000   0.984375 0
  0.750000   0.953125 0
  0.796875   0.593750 0
  0.796875   0.562500 0
  0.750000   0.843750 0
  0.750000   0.937500 0
  0.515625   1.000000 0
  0.750000   0.906250 0
  0.515625   0.968750 0
  0.750000   0.671875 0
  0.750000   0.875000 0
  0.515625   0.937500 0
  0.515625   0.921875 0
  0.515625   0.890625 0
  0.750000   0.796875 0
  0.515625   0.859375 0
  0.750000   0.765625 0
  0.515625   0.828125 0
  1.000000   0.718750 0
  0.750000   0.531250 0
  0.750000   0.734375 0
  0.515625   0.796875 0
  0.734375   1.000000 0
  0.734375   0.968750 0
  0.734375   0.937500 0
  0.781250   0.578125 0
  0.781250   0.546875 0
  0.968750   0.578125 0
  0.734375   0.828125 0
  0.968750   0.546875 0
  0.734375   0.796875 0
  0.734375   0.765625 0
  0.968750   0.671875 0
  0.734375   0.734375 0
  0.968750   0.640625 0
  0.734375   0.703125 0
  0.968750   0.609375 0
  0.734375   0.671875 0
  0.734375   0.656250 0
  0.734375   0.625000 0
  0.968750   0.531250 0
  0.734375   0.593750 0
  0.984375   0.734375 0
  0.984375   0.703125 0
  0.734375   0.515625 0
  0.718750   0.984375 0
  0.718750   0.953125 0
  0.718750   0.921875 0
  0.953125   0.562500 0
  0.718750   0.812500 0
  0.953125   0.531250 0
  0.718750   0.781250 0
  0.718750   0.750000 0
  0.953125   0.656250 0
  0.718750   0.718750 0
  0.953125   0.625000 0
  0.718750   0.687500 0
  0.953125   0.593750 0
  0.718750   0.656250 0
  0.671875   1.000000 0
  0.718750   0.640625 0
  0.718750   0.609375 0
  0.953125   0.515625 0
  0.718750   0.578125 0
  0.968750   0.718750 0
  0.968750   0.687500 0
  0.953125   0.671875 0
  0.703125   0.968750 0
  0.703125   0.937500 0
  0.937500   0.656250 0
  0.703125   0.906250 0
  0.937500   0.546875 0
  0.703125   0.796875 0
  0.937500   0.515625 0
  0.703125   0.765625 0
  0.937500   0.671875 0
  0.703125   0.734375 0
  0.937500   0.640625 0
  0.703125   0.703125 0
  0.937500   0.609375 0
  0.703125   0.671875 0
  0.937500   0.578125 0
  0.703125   0.640625 0
  0.656250   0.984375 0
  0.703125   0.625000 0
  0.703125   0.593750 0
  0.718750   0.796875 0
  0.953125   0.734375 0
  0.812500   1.000000 0
  0.859375   0.656250 0
  0.703125   0.781250 0
  0.937500   0.718750 0
  0.953125   0.703125 0
  0.796875   0.984375 0
  0.843750   0.640625 0
  0.812500   0.968750 0
  0.859375   0.625000 0
  0.796875   0.953125 0
  0.843750   0.609375 0
  0.687500   0.953125 0
  0.687500   0.921875 0
  0.687500   0.890625 0
  0.921875   0.734375 0
  0.687500   0.796875 0
  0.687500   0.781250 0
  0.921875   0.703125 0
  0.687500   0.765625 0
  0.687500   0.750000 0
  0.921875   0.656250 0
  0.687500   0.718750 0
  0.921875   0.625000 0
  0.687500   0.687500 0
  0.921875   0.593750 0
  0.687500   0.656250 0
  0.640625   1.000000 0
  0.921875   0.562500 0
  0.687500   0.625000 0
  0.640625   0.968750 0
  0.687500   0.609375 0
  0.687500   0.578125 0
  0.937500   0.687500 0
  0.921875   0.671875 0
  0.671875   0.921875 0
  0.906250   0.656250 0
  0.671875   0.906250 0
  0.671875   0.875000 0
  0.906250   0.718750 0
  0.671875   0.781250 0
  0.671875   0.765625 0
  0.671875   0.734375 0
  0.906250   0.640625 0
  0.671875   0.703125 0
  0.906250   0.609375 0
  0.671875   0.671875 0
  0.906250   0.578125 0
  0.671875   0.640625 0
  0.625000   0.984375 0
  0.671875   0.609375 0
  0.625000   0.953125 0
  0.671875   0.593750 0
  0.671875   0.562500 0
  0.765625   0.953125 0
  0.812500   0.609375 0
  0.656250   1.000000 0
  0.656250   0.953125 0
  0.656250   0.906250 0
  0.890625   0.640625 0
  0.656250   0.890625 0
  0.656250   0.859375 0
  0.890625   0.734375 0
  0.656250   0.796875 0
  0.812500   0.921875 0
  0.562500   1.000000 0
  0.625000   0.828125 0
  0.812500   0.843750 0
  0.843750   0.593750 0
  0.812500   0.812500 0
  0.625000   0.718750 0
  0.828125   0.687500 0
  0.640625   0.593750 0
  0.812500   0.781250 0
  0.625000   0.687500 0
  0.765625   0.828125 0
  0.640625   0.562500 0
  0.812500   0.750000 0
  0.562500   0.828125 0
  0.781250   0.875000 0
  0.546875   0.937500 0
  0.781250   0.671875 0
  0.781250   0.593750 0
  0.546875   0.656250 0
  0.796875   0.750000 0
  0.562500   0.812500 0
  0.796875   0.546875 0
  0.765625   0.796875 0
  0.765625   0.593750 0
  1.000000   0.531250 0
  0.812500   0.718750 0
  0.859375   0.562500 0
  0.625000   0.625000 0
  0.812500   0.703125 0
  0.812500   0.906250 0
  0.578125   0.968750 0
  0.984375   0.593750 0
  0.828125   0.578125 0
  0.828125   0.781250 0
  0.593750   0.843750 0
  0.812500   0.671875 0
  0.625000   0.578125 0
  0.796875   0.671875 0
  0.562500   0.734375 0
  0.984375   0.562500 0
  0.828125   0.546875 0
  0.812500   0.640625 0
  0.750000   0.812500 0
  0.625000   0.546875 0
  0.796875   0.640625 0
  0.562500   0.703125 0
  0.828125   0.515625 0
  0.781250   0.734375 0
  0.546875   0.796875 0
  0.781250   0.531250 0
  0.750000   0.781250 0
  0.625000   0.515625 0
  0.796875   0.609375 0
  0.562500   0.671875 0
  0.765625   0.656250 0
  0.765625   0.859375 0
  0.531250   0.921875 0
  0.812500   0.578125 0
  0.562500   0.656250 0
  0.984375   0.687500 0
  0.750000   0.750000 0
  0.812500   0.562500 0
  0.812500   0.765625 0
  0.578125   0.828125 0
  0.562500   0.625000 0
  0.984375   0.656250 0
  0.750000   0.718750 0
  0.812500   0.531250 0
  0.781250   0.656250 0
  0.546875   0.718750 0
  0.781250   0.625000 0
  0.546875   0.687500 0
  0.750000   0.640625 0
  0.796875   0.531250 0
  0.562500   0.593750 0
  0.984375   0.625000 0
  0.750000   0.687500 0
  0.546875   0.984375 0
  0.609375   0.812500 0
  0.796875   0.875000 0
  0.546875   0.953125 0
  0.609375   0.578125 0
  0.843750   0.515625 0
  0.765625   0.515625 0
  0.765625   0.718750 0
  0.531250   0.781250 0
  0.984375   0.546875 0
  0.750000   0.609375 0
  0.796875   0.828125 0
  0.671875   0.968750 0
  0.796875   0.796875 0
  0.796875   0.765625 0
  0.609375   0.671875 0
  0.796875   0.734375 0
  0.546875   0.812500 0
  0.796875   0.703125 0
  0.843750   0.546875 0
  0.609375   0.609375 0
  0.796875   0.687500 0
  0.562500   0.953125 0
  0.796875   0.656250 0
  0.609375   0.562500 0
  0.796875   0.625000 0
  0.609375   0.531250 0
  0.546875   0.640625 0
  0.765625   0.671875 0
  0.531250   0.734375 0
  0.796875   0.515625 0
  0.765625   0.640625 0
  0.531250   0.703125 0
  0.703125   1.000000 0
  0.765625   0.609375 0
  0.531250   0.671875 0
  0.765625   0.578125 0
  0.531250   0.640625 0
  0.546875   0.609375 0
  0.531250   1.000000 0
  0.890625   0.593750 0
  0.656250   0.656250 0
  0.781250   0.515625 0
  0.546875   0.578125 0
  0.531250   0.968750 0
  0.890625   0.562500 0
  0.656250   0.625000 0
  0.609375   0.968750 0
  0.781250   0.859375 0
  0.656250   0.593750 0
  0.750000   0.703125 0
  0.515625   0.765625 0
  0.781250   0.812500 0
  0.781250   0.781250 0
  0.593750   0.687500 0
  0.781250   0.750000 0
  0.593750   0.656250 0
  0.781250   0.718750 0
  0.531250   0.796875 0
  0.828125   0.562500 0
  0.593750   0.625000 0
  0.781250   0.687500 0
  0.828125   0.531250 0
  0.593750   0.593750 0
  0.812500   0.625000 0
  0.578125   0.687500 0
  0.781250   0.640625 0
  0.781250   0.609375 0
  0.593750   0.515625 0
  0.515625   0.781250 0
  0.812500   0.546875 0
  0.578125   0.609375 0
  0.812500   0.515625 0
  0.578125   0.578125 0
[...]
CELL_DATA 7648
VECTORS vector_value float
-0.0206853 -1.05721 0
-0.0206853 -1.07695 0
-0.0394288 -0.861693 0
-0.0269801 -0.861693 0
-0.0333161 -0.868029 0
-0.0269801 -0.858392 0
0.153662 -2.21639 0
0.153662 -2.14147 0
0.0285793 -2.14147 0
0.0171584 -2.27797 0
0.790383 -1.68717 0
0.790383 -1.16402 0
0.15287 -1.16402 0
0.393228 -1.56118 0
0.15287 -1.3274 0
0.0758849 -1.40438 0
0.0758849 -1.49497 0
0.393228 -1.40438 0
-0.239284 -1.23332 0
-0.211784 -1.24344 0
-0.232504 -1.20582 0
-0.221898 -1.23332 0
-0.221898 -1.27617 0
-0.202868 -1.27617 0
-0.0705118 -1.18035 0
-0.0499782 -1.15981 0
-0.0499782 -1.17437 0
-0.0737726 -1.15981 0
-0.0317619 -1.16946 0
-0.0153785 -1.15308 0
-0.0153785 -1.16671 0
-0.0348414 -1.15308 0
-0.0120858 -0.931712 0
0.0309528 -0.888674 0
0.0309528 -0.90476 0
-0.0113477 -0.888674 0
-0.025293 -1.64615 0
-0.117446 -1.60013 0
0 -1.07695 0
0 -1.05627 0
-0.623881 -0.90523 0
-0.607403 -0.888753 0
-0.00152316 -1.18915 0
0 -1.18763 0
0.0309264 -0.838426 0
0.0579203 -0.838426 0
0.0641069 -0.832239 0
0.0579203 -0.786844 0
0.136628 -0.798926 0
0.168843 -0.798926 0
0.321187 -0.646583 0
0.168843 -0.624373 0
0.0498684 -0.723448 0
-0.0105695 -0.723448 0
0.0598185 -0.65306 0
-0.0105695 -0.691762 0
-0.28605 -1.19425 0
-0.287854 -1.21775 0
-0.264359 -1.22412 0
-0.270731 -1.21775 0
-0.270731 -1.24636 0
-0.262044 -1.24636 0
-0.793559 -0.616405 0
-0.42357 -0.246416 0
-0.42357 -0.557201 0
-0.300726 -0.246416 0
-0.300607 -0.567003 0
-0.264654 -0.589963 0
-0.203795 -0.53105 0
0.0621514 -0.181439 0
-0.0149043 -0.258495 0
-0.0149043 -0.402284 0
0.579141 -0.258495 0
-0.24849 -1.22412 0
-0.358291 -0.956807 0
-0.0477086 -0.814794 0
-0.0249546 -0.814794 0
-0.0337052 -0.823545 0
-0.0249546 -0.81576 0
-0.0517379 -0.844455 0
-0.0517379 -0.828797 0
-0.0337052 -0.828797 0
-0.0477086 -0.824768 0
-0.0872899 -0.851797 0
-0.0714246 -0.851797 0
-0.0640821 -0.844455 0
-0.0714246 -0.824768 0
-0.0682265 -1.01954 0
-0.0682265 -1.03794 0
-0.0431676 -1.03794 0
0.0943927 -1.11261 0
0.0943927 -0.822239 0
-0.0169257 -0.822239 0
-0.00719631 -0.923828 0
-0.0169257 -0.719473 0
-0.12942 -0.831968 0
-0.12942 -0.712007 0
-0.00719631 -0.831968 0
-0.121954 -0.62545 0
-0.19409 -0.62545 0
-0.208511 -0.712007 0
-0.113449 -0.93822 0
-0.113449 -0.84794 0
-0.430626 -1.16512 0
-0.189164 -1.24344 0
-0.00373156 -0.827993 0
-0.011767 -0.831171 0
-0.00858866 -0.838076 0
-0.506822 -1.74219 0
-0.122088 -1.35745 0
-0.122088 -1.49801 0
-0.229483 -1.35745 0
0.0146073 -0.838246 0
0.0159991 -0.836855 0
0.0159991 -0.823139 0
0.00649294 -0.836855 0
0.00256754 -0.835601 0
0.00335328 -0.831208 0
0.000655695 -0.834815 0
-0.275727 -1.98723 0
-0.275727 -1.85862 0
-0.183665 -1.85862 0
-0.254787 -1.83768 0
-0.254787 -1.7875 0
-0.179722 -1.7875 0
-0.183665 -1.79144 0
-0.179722 -1.74893 0
-0.196516 -0.823525 0
-0.327739 -0.954748 0
-0.327739 -0.901031 0
-0.145453 -0.954748 0
-0.0143009 -0.858392 0
-0.0173436 -0.861435 0
-0.0173436 -0.868029 0
-0.00485208 -0.861435 0
0.950789 -2.46556 0
0.215246 -2.46556 0
0.464415 -2.21639 0
0.215246 -2.27797 0
-0.17713 -1.67786 0
-0.106176 -1.23053 0
-0.0569706 -1.18133 0
-0.324565 -0.61301 0
-0.324565 -0.556424 0
-0.337051 -0.556424 0
-0.337051 -0.41595 0
-0.409264 -0.195466 0
-0.405313 -0.488162 0
-0.259567 -1.16777 0
-0.259567 -1.19904 0
-0.239284 -1.19904 0
-0.173006 -1.07338 0
-0.157032 -1.0574 0
-0.157032 -1.08807 0
-0.145309 -1.0574 0
-0.0947349 -0.971848 0
-0.103997 -0.981111 0
-0.103997 -1.02143 0
-0.0191332 -0.981111 0
-0.121954 -0.719473 0
-0.265353 -0.84794 0
0.201181 -1.69407 0
0.183068 -1.71218 0
0.183068 -1.79318 0
0.234507 -1.71218 0
0.0209222 -1.40481 0
-0.581554 -0.818549 0
-0.553677 -0.790672 0
-0.553677 -0.888753 0
-0.528077 -0.790672 0
-0.0344132 -0.883989 0
-0.032747 -0.883989 0
-0.0207312 -0.871973 0
-0.032747 -0.844634 0
0.00774649 -0.828602 0
0.00514066 -0.831208 0
-0.268389 -0.220191 0
-0.446627 -0.398428 0
-0.446627 -0.556257 0
-0.265675 -0.398428 0
-0.398865 -0.508495 0
-0.33656 -0.508495 0
-0.353007 -0.524942 0
-0.33656 -0.469313 0
-0.133564 -1.09694 0
-0.133564 -1.11984 0
-0.116731 -1.11984 0
-0.115063 -1.10134 0
-0.0961972 -1.10264 0
-0.0961972 -1.12128 0
-0.0756706 -1.12128 0
0.0814008 -0.950107 0
0 -0.874698 0
-0.231126 -0.469313 0
-0.280931 -0.519117 0
-0.280931 -0.524942 0
-0.203962 -0.519117 0
-0.112164 -0.963708 0
-0.0771093 -0.928653 0
-0.0771093 -0.962945 0
-0.108739 -0.928653 0
0.0324313 -1.89915 0
0.0324313 -2.09138 0
0.0848814 -2.09138 0
0.159067 -1.96475 0
0.0138856 -0.871606 0
0.0309264 -0.854565 0
0.0848814 -2.27643 0
0.195745 -2.16557 0
0.195745 -2.22056 0
0.159067 -2.16557 0
0.251621 -2.27643 0
0.251621 -2.48159 0
0.985725 -2.48159 0
0.512649 -2.22056 0
0.0990846 -2.22555 0
0.0990846 -2.06891 0
0.347394 -2.06891 0
0.344278 -1.82372 0
-0.0969242 -0.701984 0
-0.18372 -0.701984 0
-0.154799 -0.673063 0
-0.18372 -0.735469 0
-0.21783 -0.644768 0
-0.268645 -0.61301 0
-0.300403 -0.637172 0
-0.300607 -0.434238 0
-0.235749 -0.434238 0
-0.203795 -0.402284 0
-0.235749 -0.181439 0
0.268478 -2.10157 0
0.113765 -2.10157 0
0.175875 -2.03946 0
0.113765 -2.05629 0
-0.0312733 -0.851638 0
-0.0341542 -0.854519 0
-0.0341542 -0.856418 0
-0.0231066 -0.854519 0
0.0171584 -2.13005 0
-0.061491 -2.13005 0
0.0285793 -2.03998 0
-0.061491 -1.99245 0
-0.0394288 -0.856395 0
-0.0508387 -0.867805 0
-0.0508387 -0.85068 0
-0.0333161 -0.867805 0
0.023884 -1.15648 0
0 -1.18037 0
-1.00409 -0.911801 0
-0.450197 -0.357912 0
-0.450197 -0.838194 0
-0.288263 -0.357912 0
-0.236838 -0.624835 0
-0.183274 -0.624835 0
-0.110733 -0.552294 0
-0.183274 -0.252923 0
0.217583 -0.252923 0
0.116098 -0.354408 0
0.116098 -0.552294 0
-0.00945725 -0.841616 0
-0.0119014 -0.84406 0
-0.0119014 -0.849586 0
-0.00312454 -0.84406 0
-0.019872 -0.841616 0
-0.019872 -0.846352 0
-0.0312733 -0.846352 0
-0.0231066 -0.849586 0
-0.00397561 -0.844911 0
-0.00397561 -0.851986 0
-0.0143009 -0.851986 0
-0.00485208 -0.852862 0
-0.282548 -0.778776 0
-0.362278 -0.680207 0
-0.460847 -0.816717 0
-0.188043 -1.0294 0
-0.108775 -0.950128 0
-0.108775 -1.06625 0
-0.125 -0.950128 0
-0.204689 -1.17801 0
-0.204689 -1.21292 0
-0.181263 -1.21292 0
-0.12917 -1.0829 0
-0.12917 -1.10134 0
-0.134577 -1.0829 0
-0.11376 -1.10264 0
-0.0967642 -1.10207 0
-0.114042 -1.08565 0
-0.128771 -1.07446 0
-0.126762 -1.07383 0
-0.129942 -1.07245 0
-0.0431676 -1.05721 0
-0.0216285 -1.03567 0
-0.0216285 -1.05627 0
-0.0454337 -1.03567 0
-0.326071 -1.04928 0
-0.265011 -0.98822 0
0.34948 -1.74386 0
0.664389 -1.56118 0
-0.057573 -0.868378 0
-0.0121874 -0.802993 0
-0.0107007 -0.933097 0
0.171354 -1.20108 0
-0.557065 -1.03125 0
-0.923443 -3.10962 0
-0.214177 -2.68127 0
-0.300403 -0.644768 0
0.2338 -2.48411 0
-0.214177 -2.40036 0
0.00296529 -2.47797 0
-0.405313 -0.637172 0
0.00910808 -2.26992 0
-0.592592 -1.95321 0
-0.120723 -0.572656 0
0.0461559 -1.79318 0
0.191053 -0.464452 0
0.0311318 -0.624373 0
0.191053 -0.646583 0
0.179678 -0.836257 0
0.1337 -0.916046 0
-0.0368458 -1.13536 0
-0.401566 -1.38049 0
0.0495459 -0.995398 0
-0.290828 -1.23784 0
-0.29432 -1.25291 0
0.100442 -0.923913 0
-0.543052 -1.07826 0
-0.0686356 -0.821979 0
-0.314543 -1.32388 0
-0.304356 -1.18812 0
-0.36709 -1.32388 0
-0.2722 -1.54374 0
-0.2722 -1.66648 0
-0.0847588 -0.76142 0
0.00910808 -2.48411 0
-0.228082 -2.70902 0
0.0472648 -2.48079 0
0.250826 -2.48079 0
0.00934109 -0.397238 0
-0.164226 -2.45031 0
-0.144177 -1.03961 0
-0.123201 -1.02727 0
-0.144689 -1.07701 0
0.244981 -1.2672 0
-0.154514 -1.057 0
-0.185584 -1.08683 0
0.136628 -0.90476 0
0.0579045 -0.931712 0
0.142328 -1.06234 0
0.321187 -0.983484 0
0.234507 -1.63461 0
-0.0770727 -0.464452 0
-0.198938 -2.47797 0
-0.030054 -0.88718 0
-0.0131271 -0.292834 0
-0.0952729 -1.14227 0
-0.117635 -1.06471 0
-0.134502 -1.06471 0
0.363332 -0.95593 0
0.0873922 -0.956098 0
-0.152439 -1.34003 0
0.0401539 -0.962228 0
0.138756 -0.962228 0
0.100442 -0.901939 0
-0.29432 -1.23435 0
-0.172201 -1.01864 0
0.572067 -0.859701 0
0.0876943 -1.06693 0
0.0876943 -1.16709 0
0.214673 -1.04011 0
-0.295786 -1.26104 0
-0.0454337 -1.01514 0
0 -1.17934 0
0 -1.16671 0
-0.000212672 -0.811559 0
-0.0572477 -0.933097 0
0.208164 -1.93705 0
0.0940796 -0.797711 0
-0.330314 -1.23446 0
-0.328861 -1.25302 0
-0.0207198 -0.98295 0
-0.3103 -1.25033 0
0.940792 -0.346459 0
-0.0886627 -1.37864 0
0.0139577 -0.889367 0
0.00564498 -0.892719 0
0.0149154 -0.89768 0
0.208826 -0.902599 0
0.15772 -0.902599 0
0.15772 -0.866635 0
-0.279966 -1.10335 0
-0.240855 -1.11253 0
-0.265011 -1.06423 0
-0.198565 -1.18413 0
0.065138 -0.866635 0
-0.209526 -1.12248 0
-0.285345 -1.16777 0
-0.255357 -1.17198 0
-0.284474 -1.13778 0
0.0833443 -0.609001 0
0.412273 -0.874978 0
-0.137865 -1.92171 0
-0.0740568 -0.839264 0
-0.175251 -1.9591 0
-0.117971 -0.883179 0
-0.25004 -1.10335 0
-0.175251 -1.85021 0
0.0341106 -0.422007 0
-0.117971 -0.82514 0
-0.247592 -1.9591 0
0.149315 -0.496339 0
-0.0647759 -0.883179 0
-0.0776978 -1.50343 0
-0.210387 -0.985988 0
0.0423006 -1.17705 0
-0.156239 -0.969302 0
-0.246666 -0.931839 0
0.0401539 -0.922076 0
-0.210387 -0.968118 0
0.0423006 -1.22499 0
0.0105365 -0.828602 0
0.0980312 -1.84501 0
-0.37659 -0.911801 0
0.00660826 -1.24404 0
-0.218017 -1.43448 0
-0.0500536 -1.30212 0
-0.256203 -0.610917 0
-0.305923 -1.0591 0
0.0948782 -0.710435 0
-0.0356883 -0.826611 0
-0.0217232 -0.823435 0
0.412273 -0.609001 0
-0.7199 -2.2236 0
-0.425278 -1.95845 0
0.0740204 -0.689577 0
-0.0616615 -0.934695 0
-0.194902 -0.613183 0
-0.226475 -1.17801 0
-0.0739998 -0.542614 0
-0.144568 -0.248316 0
-0.0332327 -1.03833 0
-0.196303 -1.59059 0
-0.0314381 -1.1048 0
-0.143217 -1.07426 0
-0.329524 -1.04583 0
-0.329524 -1.09884 0
-0.0447462 -0.873898 0
-0.0397086 -1.20116 0
0.0434175 -1.11803 0
-0.0716059 -0.89152 0
-0.0716059 -0.934157 0
-0.0438001 -0.906351 0
-0.597357 -0.300069 0
-0.568305 -1.61083 0
-0.395524 -1.38866 0
0.0264674 -1.37864 0
0.00564498 -0.89768 0
0.00689437 -0.882304 0
0.210834 -0.90706 0
-0.137865 -2.06882 0
-0.122716 -2.26992 0
-0.380525 -1.20655 0
-0.361462 -1.17142 0
-0.0626413 -0.85068 0
-0.285345 -1.13691 0
-0.228829 -0.843903 0
-0.145601 -1.31963 0
-0.0341381 -0.857211 0
-0.0276055 -0.850679 0
-0.311432 -1.17113 0
-0.0276055 -0.833228 0
-0.0394061 -0.850679 0
-0.0341381 -0.855947 0
-0.0394061 -0.856418 0
-0.0389346 -0.855947 0
-0.360517 -1.17981 0
-0.062552 -1.9964 0
-0.062552 -2.23882 0
-0.398266 -1.18916 0
-0.0315445 -0.873479 0
-0.0776978 -1.41955 0
0.0998882 -0.854823 0
-0.123201 -1.01864 0
-0.197845 -1.24699 0
-0.550938 -2.03642 0
-0.291692 -0.589963 0
0.176391 -1.51228 0
-0.788686 -1.00997 0
-0.380525 -1.17142 0
-0.707605 -0.90523 0
-0.258047 -1.19546 0
0.178139 -1.2808 0
-0.102746 -1.29454 0
-0.150628 -1.29454 0
-0.126648 -2.06346 0
-0.0451229 -0.833161 0
-0.0237766 -1.1784 0
-1.30538 -1.17901 0
0.0218627 -0.905509 0
-0.0191332 -0.946505 0
0.0218627 -0.869928 0
-0.523258 -1.24912 0
-0.31041 -0.5898 0
0.0998882 -0.916046 0
-0.302476 -0.68495 0
-0.00362272 -0.857211 0
0.065138 -0.856818 0
0.0167827 -2.71483 0
-0.449997 -1.26007 0
-0.428485 -1.21974 0
-0.0999225 -0.820659 0
-1.2838 -1.03125 0
-0.226475 -1.1431 0
-0.194902 -0.82514 0
-0.211784 -1.20582 0
-0.266444 -1.02417 0
-0.37659 -0.968118 0
0.00660826 -1.22499 0
-0.284114 -1.09593 0
-0.0595303 -1.08867 0
0.127801 -1.64402 0
-0.0237389 -1.79556 0
-0.111804 -1.07362 0
0 -0.873479 0
-0.457424 -0.408972 0
-0.109857 -1.28743 0
-0.202371 -1.08011 0
-0.272176 -0.595156 0
-0.256203 -0.588268 0
-0.000189218 -0.830944 0
-0.18878 -0.261309 0
-0.00362272 -0.856818 0
0.0814008 -0.874698 0
-0.223888 -1.0812 0
-0.20634 -0.811676 0
-0.101243 -0.821979 0
-0.140181 -1.07426 0
-0.366627 -1.27336 0
0.0273182 -1.2854 0
0.0448299 -0.266401 0
-0.171724 -1.07338 0
-0.10681 -1.03302 0
-0.15985 -1.10771 0
-0.229483 -1.10723 0
-0.152089 -1.08807 0
-0.183238 -1.09619 0
-0.183238 -1.13109 0
-0.00540255 -1.00562 0
-0.164138 -0.319588 0
-0.0924393 -1.40481 0
-0.0550459 -0.319588 0
-0.550459 -1.82372 0
0.00142845 -0.81201 0
-0.00582183 -0.824492 0
0.0944202 -1.00528 0
-0.404546 -0.691923 0
0.0167827 -2.45031 0
-0.0275383 -0.833161 0
-0.370562 -0.571909 0
0.0434175 -1.15008 0
-0.183063 -1.4014 0
-0.0217232 -0.8374 0
-0.0356883 -0.848495 0
-0.0562112 -1.52492 0
-0.0245931 -0.861593 0
0.099005 -1.1784 0
-0.281474 -1.28249 0
0.099005 -1.48949 0
-0.101243 -0.86575 0
-0.42725 -1.47501 0
-0.0207198 -0.922958 0
-0.328861 -1.23591 0
0.0200169 -0.880458 0
-0.310405 -1.21455 0
-0.454955 -1.11377 0
-0.42259 -1.0814 0
-0.0554866 -0.78511 0
-0.42259 -1.15894 0
-0.0554866 -0.790692 0
-0.38752 -1.0814 0
-0.0188734 -0.78511 0
-0.451633 -0.652677 0
-0.467765 -1.19822 0
-0.428485 -1.15894 0
-0.156239 -0.931839 0
0.0021809 -0.828248 0
-0.000352317 -0.830781 0
-0.000352317 -0.827797 0
-0.0220529 -0.86434 0
0.000581974 -0.830781 0
-0.149424 -0.619226 0
-0.272176 -0.588268 0
-0.285946 -0.565231 0
-0.00349969 -0.830944 0
0.191152 -0.651135 0
-0.175928 -1.72194 0
-0.00117575 -0.831931 0
9.87409e-05 -0.828248 0
-0.136655 -0.749738 0
9.87409e-05 -0.821876 0
-0.00582183 -0.827797 0
0.00091819 -0.834553 0
-0.00373156 -0.819957 0
-0.211399 -0.824482 0
0.00514066 -0.823206 0
0.421405 -0.803075 0
0.172556 -0.591041 0
0.0546118 -0.591041 0
0.0579045 -0.983484 0
-0.134577 -1.06865 0
-0.101758 -1.58958 0
-0.209526 -1.0812 0
-0.145453 -0.951672 0
-0.0294277 -0.593433 0
-0.153582 -1.02971 0
-0.0140746 -1.29148 0
0.120126 -0.811647 0
0.120126 -0.829041 0
-0.0781988 -1.63461 0
-0.557065 -1.07561 0
-0.0131271 -0.164291 0
-0.0481144 -0.885725 0
-0.312559 -1.28249 0
-0.0126292 -1.17934 0
-0.295786 -1.25454 0
0.214673 -0.960353 0
0.113745 -0.292834 0
-0.197392 -1.72194 0
-0.413325 -1.26007 0
-0.214042 -0.819377 0
-0.36709 -1.30097 0
-0.376089 -1.26373 0
-0.275123 -0.580968 0
-0.517415 -1.30873 0
-0.150628 -1.25134 0
-0.315448 -0.924175 0
0.0916412 -1.30212 0
0.0472648 -2.23882 0
0.0349872 -1.1567 0
-0.0982192 -1.01954 0
-0.0726177 -1.01514 0
-0.10657 -0.993933 0
-0.404546 -0.952598 0
0.384282 -0.822724 0
-0.110856 -1.04764 0
0.112431 -1.2854 0
-0.194686 -1.09593 0
0.112431 -1.19308 0
-0.194686 -1.04666 0
-0.0763454 -0.990206 0
0.578369 -1.05216 0
0.363332 -1.2672 0
-0.226343 -1.13868 0
-0.191798 -1.24907 0
-0.419299 -1.04583 0
-0.454061 -1.98723 0
-0.321025 -1.21123 0
-0.201751 -0.593953 0
-0.0737726 -1.14158 0
-0.145053 -0.819377 0
0 -0.841934 0
-0.243952 -1.84581 0
-0.283697 -0.5898 0
-0.06844 -1.68989 0
-0.376853 -1.10272 0
0.419872 -2.22555 0
-0.175928 -1.70435 0
0.149731 -0.542614 0
-0.310077 -1.06326 0
0.0853778 -1.13613 0
0.0444512 -1.11203 0
-0.139553 -1.00228 0
-0.268645 -0.593953 0
0.000581974 -0.832716 0
-0.149424 -0.543296 0
-0.000189218 -0.831552 0
-0.249996 -0.565151 0
0.149731 -0.346459 0
-0.222952 -1.75567 0
-0.241771 -1.52584 0
-0.111804 -1.08867 0
0.176391 -2.03642 0
0.231279 -0.925052 0
-0.262044 -1.2838 0
-0.360686 -1.14396 0
0.240505 -1.03238 0
-0.228863 -1.31146 0
-0.0910497 -0.997785 0
0.346812 -1.03238 0
0.346812 -0.809518 0
-0.207684 -1.70842 0
0.239489 -0.925052 0
0.208826 -0.955715 0
0.12382 -1.03339 0
0.161813 -0.955715 0
-0.0198716 -1.07777 0
-0.0412411 -1.07777 0
-0.0593044 -1.09894 0
-0.0396848 -1.09758 0
-0.00858866 -0.827993 0
-0.0846481 -1.06208 0
-0.156472 -1.61114 0
-0.00433773 -0.833825 0
-0.0784639 -1.1006 0
0.211755 -0.809518 0
-0.00950007 -0.86344 0
-0.0705118 -1.16308 0
-0.365611 -1.21391 0
0.0256095 -0.99004 0
-0.00117575 -0.833268 0
-0.140181 -1.05228 0
-0.0832189 -1.00562 0
-0.145309 -1.02143 0
-0.265812 -1.2838 0
-0.117177 -1.19083 0
-0.227382 -0.690903 0
-0.171724 -1.10771 0
0.0299048 -1.11255 0
-0.449997 -1.19822 0
-0.0872899 -0.90346 0
-0.372976 -1.23593 0
-0.143217 -1.09694 0
-0.372976 -1.20655 0
1.81359 -0.663968 0
-0.0451229 -0.856395 0
-0.011767 -0.821215 0
-0.206516 -1.71454 0
-0.212397 -1.0591 0
-0.3155 -1.16706 0
-0.00843767 -0.821876 0
-0.212397 -0.930824 0
0.127801 -2.05116 0
-0.0807936 -1.08144 0
0.0844096 -0.900568 0
-0.156472 -1.53487 0
0.00985645 -0.651135 0
-0.28572 -1.23269 0
0.0785028 -0.965337 0
-0.267868 -1.61114 0
-0.232775 -0.459945 0
-0.441584 -1.46068 0
-0.739663 -1.75876 0
-0.300852 -0.520225 0
0.0312832 -1.04293 0
-0.137937 -1.11547 0
-0.264654 -0.53105 0
-0.0438001 -0.938678 0
0.0169801 -0.870908 0
0.0349872 -1.06472 0
-0.350865 -1.19667 0
0.0537997 -0.99004 0
-0.283697 -0.583635 0
-0.389514 -1.10582 0
0.161813 -0.995398 0
0.0608764 -0.98295 0
-0.307613 -1.25302 0
-0.29181 -1.29283 0
-0.18387 -1.714 0
-0.0221093 -0.879235 0
0.504209 -0.874978 0
-0.00171623 -1.27613 0
-0.0294277 -0.340659 0
-0.267542 -0.583635 0
-0.0847588 -0.775529 0
-0.0396848 -1.07932 0
-0.0959956 -0.907126 0
0.0502503 -0.934727 0
-0.0859355 -0.896709 0
-0.103847 -0.734085 0
-0.290448 -0.8385 0
-0.0105254 -0.889982 0
-0.00146021 -0.832529 0
-0.263138 -0.59835 0
0.101413 -1.35949 0
-0.315099 -0.627372 0
-0.290448 -0.98822 0
-0.425278 -1.83768 0
0.0740204 -0.61045 0
-0.0616615 -0.951672 0
-0.459597 -1.19518 0
-0.944437 -1.95845 0
0.228025 -0.689577 0
-0.0148492 -0.934695 0
-0.436813 -0.74642 0
-0.0494996 -0.859037 0
-0.359327 -1.19792 0
-0.0440039 -1.19153 0
-0.0426717 -0.85221 0
-0.0268494 -1.17437 0
0.0481769 -0.620215 0
-0.0588346 -0.875005 0
-0.350962 -1.21391 0
0.0118985 -0.960865 0
-0.377417 -1.2624 0
-0.0640821 -0.875005 0
-0.0426717 -0.86448 0
-0.0268494 -1.18368 0
0.0481769 -0.711204 0
-0.360686 -1.13464 0
-0.448546 -1.13464 0
-0.0648215 -1.9964 0
0.0182616 -0.954502 0
-0.0626413 -0.798058 0
-0.342676 -1.17113 0
-0.427439 -2.40036 0
0.00475704 -0.904694 0
0.231279 -0.829041 0
-0.21783 -0.610033 0
0.0173991 -1.43466 0
-0.214042 -0.913083 0
-0.201751 -0.529006 0
-0.0796017 -0.825421 0
-0.330366 -0.789304 0
-0.360517 -1.18946 0
-0.382287 -1.18946 0
-0.348133 -1.26096 0
0.250826 -3.21648 0
-0.0924393 -1.34708 0
-0.0238751 -1.31954 0
-0.249996 -0.550052 0
-0.0933937 -1.18596 0
-0.198938 -2.1937 0
-0.030054 -0.893928 0
-0.00275609 -0.827017 0
-0.114156 -1.1567 0
-0.00565322 -0.872218 0
-0.265444 -1.77262 0
0.0916412 -1.2808 0
-0.0643672 -1.0418 0
-0.00283273 -1.31965 0
-0.295283 -1.23269 0
-0.376853 -1.2204 0
-0.456758 -1.3547 0
-0.153227 -1.63479 0
-0.310405 -1.23435 0
0.0200169 -0.901939 0
0.0438963 -1.89915 0
-0.30604 -0.571909 0
-0.0070703 -0.848929 0
0.421405 -1.16709 0
-0.50269 -1.32346 0
-0.360517 -1.18946 0
-0.0198716 -1.09682 0
-0.547646 -1.30971 0
-0.448546 -1.18413 0
-0.00664887 -0.833268 0
-0.0315445 -0.777626 0
-0.155289 -1.34708 0
-0.138669 -1.3372 0
-0.0846481 -1.04764 0
0.00524574 -0.772188 0
-0.00136017 -1.27648 0
-0.0569706 -1.27613 0
0.103315 -0.733398 0
-0.222214 -0.616085 0
0.0166302 -1.20424 0
-0.257969 -0.593433 0
-0.31018 -1.21477 0
-0.709946 -1.18413 0
-0.201057 -0.927892 0
-0.0216017 -0.922076 0
-0.30116 -1.26096 0
-0.287854 -1.19245 0
0.019967 -0.833228 0
0.101413 -1.29641 0
-0.258665 -1.30249 0
-0.3155 -1.14396 0
-0.454061 -2.44883 0
0.0105365 -0.814098 0
-0.311432 -1.19245 0
-0.0283257 -0.837898 0
-0.00843767 -0.81576 0
-0.0395066 -0.85221 0
-0.0959956 -0.829244 0
-0.331028 -1.19667 0
-0.0268692 -0.86448 0
-0.315099 -0.580968 0
-0.459374 -1.25069 0
-0.599552 -0.47318 0
-0.203295 -2.13714 0
0.00934109 -0.315302 0
-0.11643 -1.15897 0
0.0311059 -0.811611 0
-0.331028 -1.21455 0
0.00351619 -0.796307 0
-0.50269 -1.35467 0
-0.246125 -0.699046 0
-0.0974656 -0.903685 0
0.171354 -1.1928 0
-0.281319 -0.587164 0
0.0264674 -1.36729 0