# vtk DataFile Version 2.0
Unstructured Grid by M++
ASCII
DATASET UNSTRUCTURED_GRID
POINTS 15808 float
  0.781250   0.945312 0
  0.648438   0.812500 0
  0.773438   0.992188 0
  0.781250   0.984375 0
  0.773438   0.976562 0
  0.773438   0.968750 0
  0.781250   0.953125 0
  0.773438   0.945312 0
  0.773438   0.937500 0
  0.640625   0.921875 0
  0.640625   0.890625 0
  0.765625   0.992188 0
  0.765625   0.960938 0
  0.632812   0.937500 0
  0.632812   0.828125 0
  0.875000   0.726562 0
  0.765625   0.984375 0
  0.757812   0.984375 0
  0.757812   0.976562 0
  0.765625   0.968750 0
  0.757812   0.960938 0
  0.757812   0.953125 0
  0.765625   0.937500 0
  0.945312   1.000000 0
  0.945312   0.976562 0
  0.945312   0.968750 0
  0.945312   0.945312 0
  0.757812   0.695312 0
  0.945312   0.937500 0
  0.625000   0.937500 0
  0.625000   0.875000 0
  0.945312   0.796875 0
  0.617188   0.921875 0
  0.617188   0.843750 0
  0.617188   0.812500 0
  0.929688   0.984375 0
  0.929688   0.960938 0
  0.929688   0.953125 0
  0.929688   0.929688 0
  0.742188   0.679688 0
  0.929688   0.921875 0
  0.515625   0.625000 0
  0.609375   0.921875 0
  0.742188   0.593750 0
  0.882812   0.500000 0
  0.609375   0.890625 0
  0.609375   0.867188 0
  0.609375   0.859375 0
  0.929688   0.781250 0
  0.601562   0.937500 0
  0.601562   0.828125 0
  0.710938   0.968750 0
  0.710938   0.937500 0
  0.703125   0.921875 0
  0.914062   1.000000 0
  0.921875   1.000000 0
  0.726562   0.718750 0
  0.914062   0.968750 0
  0.914062   0.945312 0
  0.914062   0.937500 0
  0.914062   0.906250 0
  0.593750   0.937500 0
  0.593750   0.906250 0
  0.726562   0.578125 0
  0.593750   0.875000 0
  0.593750   0.851562 0
  0.593750   0.843750 0
  0.914062   0.765625 0
  0.718750   0.976562 0
  0.640625   0.804688 0
  0.632812   0.796875 0
  0.843750   0.929688 0
  0.718750   0.945312 0
  0.843750   0.781250 0
  0.851562   0.789062 0
  0.671875   0.976562 0
  0.851562   0.757812 0
  0.843750   0.750000 0
  0.570312   0.796875 0
  0.851562   0.968750 0
  0.851562   0.937500 0
  0.851562   0.929688 0
  0.601562   0.820312 0
  0.851562   0.820312 0
  0.851562   0.828125 0
  0.531250   0.867188 0
  0.890625   0.976562 0
  0.593750   0.960938 0
  0.523438   1.000000 0
  0.757812   0.968750 0
  0.593750   0.820312 0
  0.585938   0.687500 0
  0.703125   0.960938 0
  0.703125   0.929688 0
  0.828125   0.804688 0
  0.664062   0.976562 0
  0.835938   0.812500 0
  0.703125   0.867188 0
  0.835938   1.000000 0
  0.585938   0.976562 0
  0.843750   0.976562 0
  0.585938   0.937500 0
  0.835938   0.953125 0
  0.515625   1.000000 0
  0.835938   0.921875 0
  0.843750   0.921875 0
  0.835938   0.914062 0
  0.515625   0.968750 0
  0.585938   0.898438 0
  0.515625   0.945312 0
  0.515625   0.937500 0
  0.585938   0.859375 0
  0.585938   0.867188 0
  0.585938   0.828125 0
  0.843750   0.835938 0
  0.570312   1.000000 0
  0.578125   0.976562 0
  0.875000   0.960938 0
  0.945312   0.710938 0
  0.578125   0.945312 0
  0.507812   0.984375 0
  0.750000   0.945312 0
  0.812500   0.953125 0
  0.804688   0.945312 0
  0.757812   1.000000 0
  0.937500   0.562500 0
  0.750000   0.921875 0
  0.601562   0.906250 0
  0.812500   0.921875 0
  0.609375   0.804688 0
  0.601562   0.796875 0
  0.812500   0.929688 0
  0.687500   0.945312 0
  0.820312   0.796875 0
  0.601562   0.992188 0
  0.546875   0.804688 0
  0.539062   0.796875 0
  0.546875   0.796875 0
  0.539062   0.789062 0
  0.820312   0.984375 0
  0.570312   0.960938 0
  0.828125   0.960938 0
  0.570312   0.929688 0
  0.570312   0.921875 0
  0.820312   0.937500 0
  0.820312   0.929688 0
  0.828125   0.906250 0
  0.820312   0.898438 0
  0.570312   0.882812 0
  0.570312   0.875000 0
  0.812500   0.890625 0
  0.570312   0.843750 0
  0.570312   0.812500 0
  0.570312   0.804688 0
  0.914062   0.500000 0
  0.781250   0.804688 0
  0.570312   0.789062 0
  0.570312   0.781250 0
  0.570312   0.757812 0
  0.570312   0.750000 0
  0.570312   0.671875 0
  0.507812   0.929688 0
  0.718750   0.937500 0
  0.507812   0.921875 0
  0.570312   0.648438 0
  0.570312   0.640625 0
  0.507812   0.898438 0
  0.843750   0.609375 0
  0.507812   0.890625 0
  0.570312   0.609375 0
  0.570312   0.617188 0
  0.718750   0.882812 0
  0.507812   0.867188 0
  0.507812   0.859375 0
  0.570312   0.664062 0
  0.929688   1.000000 0
  0.734375   0.742188 0
  0.570312   0.593750 0
  0.570312   0.562500 0
  0.507812   0.812500 0
  0.921875   0.960938 0
  0.570312   0.554688 0
  0.570312   0.531250 0
  0.921875   0.929688 0
  0.757812   0.781250 0
  0.570312   0.523438 0
  0.601562   0.968750 0
  0.570312   0.515625 0
  0.507812   0.750000 0
  0.859375   0.976562 0
  0.859375   0.968750 0
  0.906250   0.671875 0
  0.562500   0.960938 0
  0.859375   0.945312 0
  0.859375   0.992188 0
  0.562500   0.929688 0
  0.507812   0.914062 0
  0.710938   0.929688 0
  0.851562   0.617188 0
  0.507812   0.906250 0
  0.507812   0.882812 0
  0.507812   0.875000 0
  0.562500   0.882812 0
  0.796875   0.937500 0
  0.593750   0.914062 0
  0.507812   0.828125 0
  0.859375   0.796875 0
  0.867188   0.804688 0
  0.859375   0.804688 0
  0.562500   0.804688 0
  0.859375   0.851562 0
  0.578125   0.898438 0
  0.585938   0.890625 0
  0.507812   0.804688 0
  0.710938   0.820312 0
  0.656250   0.992188 0
  0.859375   0.765625 0
  0.867188   0.773438 0
  0.562500   0.773438 0
  0.507812   0.773438 0
  0.656250   0.960938 0
  0.625000   0.507812 0
  0.695312   0.953125 0
  0.695312   0.945312 0
  0.695312   0.921875 0
  0.562500   0.695312 0
  0.562500   0.742188 0
  0.953125   0.914062 0
  0.562500   0.664062 0
  0.687500   0.851562 0
  0.562500   0.632812 0
  0.562500   0.601562 0
  0.648438   0.984375 0
  0.562500   0.554688 0
  0.562500   0.523438 0
  0.562500   0.570312 0
  0.898438   0.921875 0
  0.554688   0.976562 0
  0.554688   0.945312 0
  0.554688   0.906250 0
  0.554688   0.914062 0
  0.546875   0.914062 0
  0.617188   0.656250 0
  0.617188   0.664062 0
  0.617188   0.632812 0
  0.617188   0.625000 0
  0.609375   0.679688 0
  0.554688   0.859375 0
  0.898438   0.578125 0
  0.554688   0.867188 0
  0.546875   0.867188 0
  0.648438   0.726562 0
  0.617188   0.609375 0
  0.609375   0.617188 0
  0.617188   0.601562 0
  0.609375   0.601562 0
  0.609375   0.648438 0
  0.554688   0.828125 0
  0.617188   0.578125 0
  0.554688   0.820312 0
  0.546875   0.820312 0
  0.648438   0.671875 0
  0.617188   0.562500 0
  0.617188   0.570312 0
  0.609375   0.570312 0
  0.562500   0.796875 0
  0.554688   0.796875 0
  0.617188   0.546875 0
  0.554688   0.765625 0
  0.554688   0.773438 0
  0.617188   0.515625 0
  0.617188   0.523438 0
  0.640625   0.976562 0
  0.609375   0.523438 0
  0.742188   1.000000 0
  0.750000   1.000000 0
  0.742188   0.992188 0
  0.554688   0.734375 0
  0.554688   0.742188 0
  0.773438   0.796875 0
  0.562500   0.781250 0
  0.554688   0.789062 0
  0.546875   0.789062 0
  0.617188   0.531250 0
  0.617188   0.539062 0
  0.609375   0.539062 0
  0.578125   0.835938 0
  0.445312   0.867188 0
  0.742188   0.617188 0
  0.117188   0.703125 0
  0.187500   0.609375 0
  0.281250   0.812500 0
  0.742188   0.585938 0
  0.117188   0.671875 0
  0.718750   0.601562 0
  0.710938   0.593750 0
  0.367188   0.304688 0
  0.789062   0.585938 0
  0.742188   0.562500 0
  0.117188   0.648438 0
  0.882812   0.734375 0
  0.398438   0.593750 0
  0.187500   0.578125 0
  0.656250   0.820312 0
  0.742188   0.554688 0
  0.117188   0.640625 0
  0.718750   0.570312 0
  0.710938   0.562500 0
  0.054688   0.929688 0
  0.445312   0.843750 0
  0.117188   0.679688 0
  0.054688   0.875000 0
  0.117188   0.625000 0
  0.109375   0.617188 0
  0.906250   0.664062 0
  0.281250   0.750000 0
  0.281250   0.757812 0
  0.273438   0.750000 0
  0.664062   0.773438 0
  0.656250   0.765625 0
  0.054688   0.843750 0
  0.046875   0.835938 0
  0.742188   0.500000 0
  0.117188   0.585938 0
  0.718750   0.515625 0
  0.117188   0.593750 0
  0.109375   0.585938 0
  0.375000   0.171875 0
  0.906250   0.632812 0
  0.281250   0.718750 0
  0.882812   0.648438 0
  0.906250   0.640625 0
  0.281250   0.726562 0
  0.898438   0.632812 0
  0.273438   0.718750 0
  0.359375   0.523438 0
  0.656250   0.734375 0
  0.445312   0.726562 0
  0.718750   0.484375 0
  0.898438   0.625000 0
  0.273438   0.710938 0
  0.875000   0.640625 0
  0.281250   0.671875 0
  0.148438   0.976562 0
  0.656250   0.679688 0
  0.117188   0.539062 0
  0.109375   0.531250 0
  0.898438   0.601562 0
  0.273438   0.687500 0
  0.140625   0.992188 0
  0.390625   0.875000 0
  0.218750   0.867188 0
  0.882812   0.593750 0
  0.148438   0.968750 0
  0.460938   0.312500 0
  0.898438   0.570312 0
  0.273438   0.656250 0
  0.875000   0.585938 0
  0.765625   0.875000 0
  0.140625   0.960938 0
  0.453125   0.304688 0
  0.273438   0.664062 0
  0.140625   0.968750 0
  0.679688   0.609375 0
  0.054688   0.695312 0
  0.054688   0.703125 0
  0.218750   0.835938 0
  0.382812   0.835938 0
  0.656250   0.593750 0
  0.882812   0.679688 0
  0.257812   0.765625 0
  0.570312   0.109375 0
  0.875000   0.679688 0
  0.250000   0.765625 0
  0.562500   0.101562 0
  0.250000   0.898438 0
  0.703125   0.656250 0
  0.078125   0.742188 0
  0.710938   0.640625 0
  0.085938   0.726562 0
  0.085938   0.734375 0
  0.078125   0.726562 0
  0.648438   0.875000 0
  0.023438   0.960938 0
  0.781250   0.570312 0
  0.156250   0.656250 0
  0.250000   0.867188 0
  0.851562   0.796875 0
  0.242188   0.859375 0
  0.414062   0.867188 0
  0.687500   0.625000 0
  0.414062   0.835938 0
  0.703125   0.578125 0
  0.078125   0.664062 0
  0.250000   0.812500 0
  0.226562   0.828125 0
  0.851562   0.742188 0
  0.250000   0.781250 0
  0.687500   0.570312 0
  0.679688   0.562500 0
  0.648438   0.843750 0
  0.023438   0.929688 0
  0.335938   0.273438 0
  0.781250   0.539062 0
  0.156250   0.625000 0
  0.757812   0.554688 0
  0.085938   0.679688 0
  0.226562   0.851562 0
  0.851562   0.765625 0
  0.875000   0.687500 0
  0.250000   0.773438 0
  0.851562   0.703125 0
[...]
CELL_DATA 30592
SCALARS scalar_value float 1
LOOKUP_TABLE default
-0.435625
-0.432091
-0.435662
-0.0677073
-0.0729122
-0.0755183
-0.0755177
-0.0833235
-0.088504
-0.091126
-0.0833312
-0.0911424
-0.0911411
-0.130208
-0.135383
-0.137994
-0.14319
-0.1458
-0.151006
-0.14321
-0.151
-0.153602
-0.153632
-0.145823
-0.151035
-0.153665
-0.0598667
-0.0520663
-0.0598762
-0.041601
-0.0364556
-0.0442737
-0.0574065
-0.0520636
-0.0598816
-0.215994
-0.213419
-0.208252
-0.215898
-0.201484
-0.197787
-0.193889
-0.201061
-0.197995
-0.194024
-0.190187
-0.481752
-0.479166
-0.481753
-0.479169
-0.473948
-0.471369
-0.471362
-0.247602
-0.244891
-0.247582
-0.23195
-0.229475
-0.224044
-0.24752
-0.244957
-0.239657
-0.22157
-0.224063
-0.221591
-0.229478
-0.22944
-0.231842
-0.231905
-0.215904
-0.21348
-0.207473
-0.215928
-0.199417
-0.192399
-0.199758
-0.215985
-0.213556
-0.207733
-0.247363
-0.244874
-0.247305
-0.231831
-0.229273
-0.224123
-0.197992
-0.231777
-0.466104
-0.466094
-0.458257
-0.466113
-0.463557
-0.45834
-0.45058
-0.447993
-0.450544
-0.442761
-0.388085
-0.385481
-0.380249
-0.388071
-0.466142
-0.46354
-0.466146
-0.450521
-0.447915
-0.442705
-0.143234
-0.145838
-0.143239
-0.291646
-0.0521366
-0.286442
-0.0130085
-0.294278
-0.278648
-0.270833
-0.291635
-0.0521534
-0.286411
-0.283822
-0.317714
-0.28382
-0.0443162
-0.0260402
-0.36461
-0.0182291
-0.322943
-0.278634
-0.00265322
-0.341125
-0.270737
-0.0130219
-0.318354
-0.0104192
-0.348998
-0.0104175
-0.349044
-0.31484
-0.00259984
-0.341093
-0.00259947
-0.341172
-0.0259142
-0.330717
-0.364517
-0.0181506
-0.356778
-0.010419
-0.00260483
-0.307291
-0.0026044
-0.275965
-0.270603
-0.238084
-0.0104192
-0.005204
-0.00260418
-0.00260353
-0.0286463
-0.333118
-0.0260429
-0.330672
-0.364655
-0.0416726
-0.247347
-0.0338575
-0.0182301
-0.356888
-0.0182282
-0.356863
-0.322893
-0.0260413
-0.330765
-0.197935
-0.200559
-0.260418
-0.263019
-0.0364529
-0.0416171
-0.346361
-0.0494087
-0.0494272
-0.0573075
-0.361973
-0.32508
-0.0208692
-0.323152
-0.325458
-0.0208386
-0.334311
-0.0286437
-0.33076
-0.330643
-0.205627
-0.213445
-0.326799
-0.322961
-0.018231
-0.326982
-0.322998
-0.314959
-0.338558
-0.332947
-0.330587
-0.0260677
-0.416631
-0.408777
-0.104119
-0.221202
-0.387969
-0.0833993
-0.0494062
-0.0415425
-0.38026
-0.346676
-0.224077
-0.221103
-0.229042
-0.127528
-0.276068
-0.127489
-0.354011
-0.0494719
-0.346096
-0.13784
-0.377558
-0.137808
-0.377603
-0.135333
-0.130024
-0.369739
-0.37765
-0.137852
-0.104824
-0.22398
-0.119793
-0.425708
-0.458297
-0.41978
-0.114585
-0.0807303
-0.11198
-0.145824
-0.45039
-0.111983
-0.450416
-0.19011
-0.450536
-0.111983
-0.442717
-0.137959
-0.104174
-0.294271
-0.223955
-0.221355
-0.0989584
-0.0963534
-0.40094
-0.434695
-0.096355
-0.400971
-0.314289
-0.349131
-0.0104212
-0.223846
-0.463674
-0.0338802
-0.338546
-0.372248
-0.332556
-0.0286957
-0.330388
-0.0182259
-0.323357
-0.356532
-0.189305
-0.192606
-0.189353
-0.198256
-0.385415
-0.377602
-0.416949
-0.411306
-0.0494901
-0.388027
-0.3542
-0.0416797
-0.346563
-0.307213
-0.00260266
-0.299464
-0.299457
-0.333142
-0.0573232
-0.362184
-0.0521053
-0.0442766
-0.348954
-0.0416737
-0.380199
-0.0364643
-0.440134
-0.440117
-0.356739
-0.0182546
-0.0520789
-0.35405
-0.314428
-0.349204
-0.010438
-0.356708
-0.0182652
-0.0963614
-0.400897
-0.434921
-0.39566
-0.0911472
-0.393095
-0.231934
-0.138023
-0.104164
-0.130215
-0.138019
-0.239174
-0.248083
-0.213415
-0.455739
-0.417615
-0.41156
-0.0729198
-0.309885
-0.00507866
-0.309893
-0.497349
-0.489581
-0.481803
-0.143261
-0.47916
-0.174511
-0.474046
-0.135533
-0.169075
-0.489577
-0.151056
-0.474065
-0.13547
-0.169245
-0.205711
-0.276126
-0.270793
-0.474012
-0.135433
-0.471289
-0.166675
-0.471362
-0.166679
-0.229332
-0.223932
-0.213358
-0.349205
-0.010447
-0.0442635
-0.00261489
-0.341453
-0.00261518
-0.341632
-0.395886
-0.0911384
-0.0572934
-0.39321
-0.393262
-0.18228
-0.387998
-0.216387
-0.21634
-0.182339
-0.286442
-0.0130218
-0.317545
-0.0104166
-0.31514
-0.348965
-0.22843
-0.224149
-0.19019
-0.260416
-0.294271
-0.25521
-0.252607
-0.252601
-0.104108
-0.408925
-0.106824
-0.243456
-0.153324
-0.150881
-0.489722
-0.144877
-0.0755215
-0.221361
-0.0729157
-0.411203
-0.380137
-0.07552
-0.0416687
-0.276014
-0.270865
-0.237296
-0.268204
-0.29427
-0.291658
-0.294246
-0.435196
-0.0963349
-0.130242
-0.427224
-0.0884878
-0.0104172
-0.315125
-0.00259966
-0.341141
-0.00260111
-0.30734
-0.34112
-0.205983
-0.208428
-0.205957
-0.135659
-0.128306
-0.128218
-0.161275
-0.411393
-0.0730044
-0.424511
-0.458335
-0.119797
-0.424481
-0.408888
-0.504912
-0.0963532
-0.400919
-0.40093
-0.044273
-0.0104157
-0.348927
-0.0052083
-0.01302
-0.317744
-0.00522359
-0.0025576
-0.341015
-0.260386
-0.255205
-0.252568
-0.252568
-0.0182401
-0.0208169
-0.0182394
-0.0521323
-0.0260579
-0.263027
-0.294267
-0.260421
-0.25521
-0.270839
-0.0180737
-0.322841
-0.0259497
-0.330209
-0.364469
-0.0415801
-0.380198
-0.268227
-0.268228
-0.276041
-0.0337477
-0.372428
-0.338711
-0.260404
-0.255212
-0.252594
-0.286423
-0.00256893
-0.307489
-0.192581
-0.244781
-0.00520621
-0.236985
-0.236964
-0.497337
-0.158846
-0.489555
-0.151051
-0.393298
-0.42682
-0.247263
-0.395927
-0.150966
-0.455709
-0.489682
-0.403929
-0.0651221
-0.144944
-0.450465
-0.0963495
-0.400796
-0.435653
-0.395997
-0.091143
-0.278485
-0.393101
-0.395814
-0.278598
-0.245074
-0.393112
-0.448133
-0.482054
-0.442745
-0.291597
-0.440317
-0.200653
-0.1466
-0.143188
-0.447863
-0.481836
-0.385599
-0.145703
-0.231731
-0.380177
-0.377687
-0.137912
-0.395929
-0.39345
-0.247392
-0.27865
-0.24475
-0.247396
-0.239585
-0.00256059
-0.341092
-0.0105745
-0.315108
-0.348891
-0.317713
-0.315112
-0.0105559
-0.0364377
-0.276044
-0.299482
-0.302092
-0.299485
-0.364655
-0.372448
-0.481555
-0.138027
-0.135423
-0.130214
-0.0963493
-0.138026
-0.26302
-0.263016
-0.395549
-0.278569
-0.393094
-0.426844
-0.049519
-0.166674
-0.161466
-0.0102673
-0.349071
-0.314994
-0.362021
-0.364656
-0.0606338
-0.369823
-0.408819
-0.119522
-0.458223
-0.114864
-0.111736
-0.450469
-0.416678
-0.221562
-0.221499
-0.0989673
-0.403706
-0.354216
-0.0494788
-0.348934
-0.010418
-0.346399
-0.330501
-0.486965
-0.338543
-0.0338539
-0.205745
-0.213701
-0.205832
-0.377805
-0.114471
-0.252629
-0.221473
-0.166656
-0.161453
-0.169269
-0.112172
-0.416694
-0.260385
-0.45052
-0.112198
-0.146009
-0.0989588
-0.0650918
-0.403698
-0.104167
-0.408811
-0.255211
-0.22131
-0.106772
-0.106772
-0.244793
-0.450482
-0.236985
-0.23698
-0.466177
-0.126784
-0.463562
-0.466179
-0.126796
-0.161672
-0.0884464
-0.393195
-0.458332
-0.154147
-0.47921
-0.330732
-0.0260493
-0.0495106
-0.387946
-0.338545
-0.364409
-0.0260379
-0.0598841
-0.0181943
-0.356813
-0.0182462
-0.356804
-0.32294
-0.161471
-0.497465
-0.158793
-0.19257
-0.192629
-0.497432
-0.190139
-0.198034
-0.283866
-0.00258452
-0.307049
-0.341134
-0.291684
-0.473838
-0.26823
-0.40108
-0.502606
-0.401077
-0.291724
-0.229161
-0.223734
-0.463694
-0.166676
-0.158867
-0.291702
-0.294294
-0.427099
-0.278674
-0.276
-0.278696
-0.325492
-0.325508
-0.0208138
-0.145777
-0.143282
-0.447911
-0.481773
-0.00260079
-0.372375
-0.22125
-0.369701
-0.372378
-0.479133
-0.23935
-0.20565
-0.330698
-0.333299
-0.35685
-0.112081
-0.450516
-0.416673
-0.505266
-0.315104
-0.0104216
-0.315104
-0.0104199
-0.166918
-0.161498
-0.158993
-0.463541
-0.497496
-0.159005
-0.463513
-0.229323
-0.0805935
-0.114444
-0.0830393
-0.0805787
-0.0884167
-0.0337989
-0.0364908
-0.00260507
-0.0338038
-0.434884
-0.130851
-0.28387
-0.432247
-0.42708
-0.122819
-0.286496
-0.434876
-0.252614
-0.252706
-0.221544
-0.22157
-0.229422
-0.372397
-0.0130282
-0.317704
-0.236717
-0.130081
-0.369768
-0.393111
-0.244792
-0.408926
-0.442637
-0.294316
-0.294458
-0.387955
-0.0494745
-0.0833172
-0.385712
-0.419388
-0.0807234
-0.0885391
-0.393092
-0.427131
-0.106941
-0.395794
-0.0572915
-0.393109
-0.400935
-0.502597
-0.119814
-0.458331
-0.424423
-0.114566
-0.419269
-0.122368
-0.00260673
-0.341149
-0.00260558
-0.307286
-0.341146
-0.252493
-0.252581
-0.0286653
-0.411332
-0.0729167
-0.106769
-0.408701
-0.51039
-0.408745
-0.096131
-0.401036
-0.330755
-0.315121
-0.333325
-0.0284238
-0.330683
-0.36472
-0.0259758
-0.338495
-0.0341079
-0.229181
-0.223935
-0.221314
-0.221325
-0.0963801
-0.244898
-0.237083
-0.263003
-0.255178
-0.408685
-0.377809
-0.411548
-0.455767
-0.151026
-0.0520812
-0.166772
-0.200503
-0.169305
-0.161607
-0.0583509
-0.419128
-0.0807275
-0.01302
-0.416749
-0.0494936
-0.35418
-0.419016
-0.114585
-0.177012
-0.0260377
-0.364474
-0.174756
-0.479246
-0.184874
-0.489706
-0.385446
-0.377628
-0.411462
-0.0728833
-0.377636
-0.42662
-0.435597
-0.317716
-0.309902
-0.0286749
-0.432507
-0.127631
-0.427146
-0.088463
-0.122296
-0.0209196
-0.424718
-0.45841
-0.119842
-0.0443089
-0.333338
-0.44788
-0.442858
-0.104164
-0.447963
-0.442755
-0.40905
-0.450383
-0.330734
-0.0259363
-0.333434
-0.299486
-0.330801
-0.338567
-0.301997
-0.415864
-0.411751
-0.182359
-0.48702
-0.0598951
-0.174699
-0.41938
-0.161528
-0.16931
-0.0573016
-0.362
-0.395867
-0.158703
-0.161352
-0.401134
-0.0104189
-0.349009
-0.409149
-0.104167
-0.00521095
-0.00259978
-0.307228
-0.341192
-0.18477
-0.176906
-0.326283
-0.0208283
-0.43547
-0.427058
-0.435001
-0.323401
-0.447619
-0.17425
-0.208248
-0.177361
-0.416828
-0.323457
-0.174236
-0.182024
-0.380256
-0.0754862
-0.229342
-0.262976
-0.377529
-0.377564
-0.346072
-0.197726
-0.299495
-0.260467
-0.111411
-0.229155
-0.114702
-0.419267
-0.118601
-0.346383
-0.0413907
-0.346389
-0.205614
-0.354201
-0.362015
-0.057371
-0.362001
-0.262939
-0.111013
-0.260536
-0.26298
-0.450571
-0.111789
-0.442776
-0.138012
-0.104035
-0.252614
-0.252604
-0.229121
-0.192729
-0.497207
-0.190107
-0.223955
-0.479167
-0.174736
-0.473954
-0.135414
-0.385275
-0.494672
-0.190108
-0.380196
-0.0416652
-0.411485
-0.377506
-0.510422
-0.072921
-0.377514
-0.0729256
-0.185083
-0.182371
-0.185161
-0.489492
-0.177333
-0.294322
-0.29188
-0.286532
-0.294278
-0.213757
-0.208334
-0.205936
-0.206023
-0.127446
-0.135371
-0.309901
-0.307295
-0.302087
-0.111989
-0.260427
-0.25261
-0.252612
-0.387999
-0.231743
-0.380191
-0.387998
-0.169396
-0.166933
-0.471389
-0.169498
-0.161587
-0.0338179
-0.0338296
-0.0676237
-0.0416691
-0.307116
-0.309852
-0.317662
-0.431509
-0.426685
-0.435598
-0.415696
-0.411681
-0.419248
-0.238192
-0.237597
-0.50278
-0.401003
-0.245534
-0.369899
-0.50274
-0.0651062
-0.364296
-0.059896
-0.0260448
-0.362031
-0.0572916
-0.362033
-0.395625
-0.0576465
-0.362002
-0.0365275
-0.494822
-0.205694
-0.497032
-0.158829
-0.192706
-0.208342
-0.106787
-0.423317
-0.393477
-0.426575
-0.42356
-0.432053
-0.385681
-0.231506
-0.471412
-0.380055
-0.041685
-0.387936
-0.0833333
-0.260345
-0.254975
-0.400933
-0.184917
-0.489686
-0.0677083
-0.182417
-0.216203
-0.184983
-0.177094
-0.260423
-0.333324
-0.432397
-0.252622
-0.325519
-0.415657
-0.411651
-0.40832
-0.408318
-0.182404
-0.487116
-0.174714
-0.174741
-0.0416382
-0.380134
-0.346574
-0.033832
-0.372288
-0.247396
-0.213456
-0.2448
-0.247401
-0.0104037
-0.239588
-0.110697
-0.110474
-0.354131
-0.114379
-0.348953
-0.263024
-0.114548
-0.224198
-0.372398
-0.33852
-0.364595
-0.411645
-0.153754
-0.255219
-0.387799
-0.0494816
-0.385317
-0.0807274
-0.248571
-0.361968
-0.356701
-0.0182203
-0.0506708
-0.354116
-0.387981
-0.106733
-0.442665
-0.104202
-0.138017
-0.0989579
-0.197923
-0.192696
-0.190114
-0.49461
-0.190117
-0.494711
-0.494795
-0.489644
-0.151034
-0.244965
-0.239601
-0.237172
-0.385671
-0.145794
-0.237195
-0.229257
-0.221331
-0.409169
-0.442556
-0.104167
-0.433061
-0.427593
-0.0885406
-0.0208334
-0.425187
-0.23176
-0.223941
-0.231752
-0.0963478
-0.130164
-0.434935
-0.434893
-0.130363
-0.213534
-0.205728
-0.12756
-0.466139
-0.432191
-0.208326
-0.174502
-0.463563
-0.159016
-0.466146
-0.127563
-0.458343
-0.119746
-0.153652
-0.450578
-0.112028
-0.447431
-0.143228
-0.455767
-0.150836
-0.0526282
-0.481743
-0.143125
-0.0447962
-0.0422935
-0.346353
-0.380228
-0.0444448
-0.299417
-0.317708
-0.013027
-0.025911
-0.364549
-0.315098
-0.372445
-0.0677113
-0.369768
-0.486967
-0.18229
-0.372407
-0.0677115
-0.033854
-0.481787
-0.177206
-0.326632
-0.47392
-0.481815
-0.213345
-0.208331
-0.174466
-0.494917
-0.497477
-0.192723
-0.466099
-0.314288
-0.0104121
-0.463549
-0.466144
-0.458335
-0.424148
-0.473973
-0.135461
-0.47131
-0.166702
-0.489343
-0.150738
-0.486995
-0.0103756
-0.314755
-0.380138
-0.0754084
-0.377554
-0.377549
-0.442889
-0.138034
-0.309908
-0.00520056
-0.307302
-0.309898
-0.481551
-0.142905
-0.177137
-0.481645
-0.177086
-0.473856
-0.135266
-0.307303
-0.341149
-0.309904
-0.302092
-0.362022
-0.479186
-0.174575
-0.364703
-0.0260425
-0.362002
-0.0572929
-0.369772
-0.294273
-0.291668
-0.286459
-0.294277
-0.341147
-0.0366421
-0.338564
-0.333324
-0.299478
-0.341138
-0.450485
-0.111735
-0.145745
-0.442738
-0.103942
-0.494662
-0.255203
-0.489374
-0.224064
-0.486947
-0.247269
-0.486865
-0.247312
-0.338346
-0.334047
-0.33065
-0.364339
-0.0260363
-0.479262
-0.33073
-0.0260353
-0.200501
-0.192692
-0.158861
-0.463524
-0.0104202
-0.0442836
-0.00260688
-0.0026057
-0.307285
-0.354161
-0.349003
-0.208439
-0.356802
-0.322921
-0.16645
-0.439314
-0.314339
-0.260418
-0.408719
-0.510165
-0.411552
-0.0729094
-0.111985
-0.416923
-0.450471
-0.22919
-0.263018
-0.114588
-0.145777
-0.111988
-0.450514
-0.0182372
-0.322918
-0.356771
-0.0182385
-0.322914
-0.481956
-0.143266
-0.380223
-0.0415308
-0.075563
-0.478935
-0.481693
-0.177092
-0.268096
-0.252753
-0.505208
-0.268122
-0.237114
-0.270864
-0.23699
-0.26276
-0.262845
-0.229744
-0.237099
-0.354192
-0.0494135
-0.239729
-0.237155
-0.244841
-0.026054
-0.330736
-0.278608
-0.270801
-0.260414
-0.255204
-0.138003
-0.104168
-0.442586
-0.252599
-0.0260898
-0.364348
-0.317705
-0.166614
-0.315102
-0.349024
-0.315099
-0.112172
-0.111953
-0.119824
-0.0965234
-0.104454
-0.442734
-0.00515885
-0.356869
-0.0180858
-0.354354
-0.049467
-0.349101
-0.0103362
-0.044058
-0.356899
-0.322915
-0.0180702
-0.283838
-0.283833
-0.169409
-0.268159
-0.268199
-0.278652
-0.161546
-0.276047
-0.309874
-0.270836
-0.174481
-0.322799
-0.318882
-0.260418
-0.255209
-0.104156
-0.442741
-0.252603
-0.28645
-0.252604
-0.317707
-0.0131086
-0.315097
-0.411447
-0.107009
-0.0728564
-0.419262
-0.080711
-0.458335
-0.0597786
-0.46349
-0.158811
-0.302081
-0.299479
-0.260421
-0.25521
-0.263025
-0.276042
-0.270833
-0.237001
-0.00520299
-0.278644
-0.268228
-0.268228
-0.213605
-0.0990478
-0.244761
-0.0966574
-0.105065
-0.31766
-0.431314
-0.427001
-0.422955
-0.150958
-0.14316
-0.401142
-0.161347
-0.395842
-0.239546
-0.387986
-0.385523
-0.145628
-0.380189
-0.497317
-0.158594
-0.192766
-0.497439
-0.192732
-0.395829
-0.393434
-0.15343
-0.135421
-0.473992
-0.127605
-0.432699
-0.466131
-0.127607
-0.161509
-0.46615
-0.497379
-0.158854
-0.494676
-0.455683
-0.489327
-0.150942
-0.161442
-0.318098
-0.169303
-0.409004
-0.317807
-0.169455
-0.236998
-0.244809
-0.228861
-0.380196
-0.232069
-0.497659
-0.158894
-0.489723
-0.151049
-0.498441
-0.158862
-0.395939
-0.0572435
-0.0911406
-0.495385
-0.498705
-0.158873
-0.192701
-0.216182
-0.213827
-0.364568
-0.21615
-0.229226
-0.224058
-0.221555
-0.22146
-0.473765
-0.169292
-0.229379
-0.221515
-0.221581
-0.0806711
-0.419263
-0.0885643
-0.393263
-0.479102
-0.174483
-0.473775
-0.16933
-0.135229
-0.346381
-0.106543
-0.231831
-0.346363
-0.106557
-0.232013
-0.197854
-0.348953
-0.0447646
-0.497389
-0.494585
-0.489353
-0.307227
-0.159024
-0.166903
-0.471352
-0.159053
-0.191748
-0.48943
-0.150723
-0.184946
-0.393521
-0.153451
-0.24495
-0.0992523
-0.247351
-0.387983
-0.239551
-0.479191
-0.174503
-0.474017
-0.135799
-0.471375
-0.498195
-0.463654
-0.15889
-0.46608
-0.127577
-0.45828
-0.11958
-0.153493
-0.216108
-0.247433
-0.213638
-0.216105
-0.44802
-0.143251
-0.442713
-0.103982
-0.137805
-0.291684
-0.440106
-0.463675
-0.307294
-0.00260458
-0.455858
-0.361943
-0.1224
-0.0883641
-0.213734
-0.208295
-0.239501
-0.205842
-0.080781
-0.385447
-0.20843
-0.322921
-0.31771
-0.315106
-0.307298
-0.302087
-0.0365119
-0.29949
-0.059942
-0.315113
-0.322925
-0.463573
-0.223706
-0.458288
-0.00258766
-0.307224
-0.341303
-0.4559
-0.455821
-0.215886
-0.182304
-0.120812
-0.122731
-0.190102
-0.075523
-0.380154
-0.348952
-0.395811
-0.0910842
-0.0574892
-0.0885414
-0.427059
-0.0416652
-0.346415
-0.380222
-0.0911281
-0.395858
-0.0365251
-0.0338597
-0.268214
-0.0364826
-0.276034
-0.0338774
-0.0416965
-0.22396
-0.372372
-0.338561
-0.223952
-0.372371
-0.364566
-0.356769
-0.348953
-0.208314
-0.356768
-0.315103
-0.4713
-0.322903
-0.0182294
-0.177216
-0.330679
-0.182519
-0.174653
-0.0104203
-0.348962
-0.315102
-0.34115
-0.00260538
-0.0364577
-0.00260624
-0.341148
-0.0989562
-0.213535
-0.247393
-0.208391
-0.291674
-0.0521189
-0.29428
-0.286466
-0.00259903
-0.184898
-0.221479
-0.0728001
-0.028644
-0.354165
-0.0599086
-0.348958
-0.0104202
-0.356768
-0.083323
-0.372444
-0.0338531
-0.364646
-0.0598994
-0.0260404
-0.354217
-0.346293
-0.0416683
-0.346352
-0.0651084
-0.294272
-0.0651365
-0.309911
-0.307293
-0.0677942
-0.161455
-0.309917
-0.302088
-0.00521005
-0.00259939
-0.307306
-0.340943
-0.00260044
-0.307086
-0.135319
-0.473835
-0.130095
-0.127346
-0.432247
-0.465973
-0.127518
-0.161511
-0.268274
-0.505216
-0.416607
-0.411173
-0.442682
-0.138832
-0.0208097
-0.260429
-0.200396
-0.0182196
-0.0182174
-0.276014
-0.0364556
-0.278619
-0.0416784
-0.270811
-0.0208334
-0.0182286
-0.322691
-0.356876
-0.49737
-0.158822
-0.489561
-0.479166
-0.174429
-0.481799
-0.143248
-0.47398
-0.169334
-0.135425
-0.0728846
-0.221482
-0.369858
-0.221467
-0.255195
-0.229412
-0.497382
-0.158836
-0.497419
-0.192625
-0.223822
-0.229313
-0.231676
-0.489576
-0.184909
-0.486965
-0.346387
-0.494915
-0.0416667
-0.346378
-0.380243
-0.354192
-0.205761
-0.322907
-0.356769
-0.01836
-0.208311
-0.239747
-0.205853
-0.338507
-0.190139
-0.307296
-0.497392
-0.192791
-0.158801
-0.190219
-0.19798
-0.307287
-0.341122
-0.192734
-0.19005
-0.494778
-0.346382
-0.19781
-0.466164
-0.161506
-0.497398
-0.191988
-0.205737
-0.494793
-0.489588
-0.15115
-0.494787
-0.190078
-0.393273
-0.130284
-0.224058
-0.229368
-0.197925
-0.486979
-0.299545
-0.299515
-0.0521523
-0.018099
-0.356906
-0.455689
-0.307324
-0.00260136
-0.159017
-0.497398
-0.158945
-0.49736
-0.0285637
-0.463545
-0.0602315
-0.025938
-0.364593
-0.278648
-0.130206
-0.127765
-0.466146
-0.432317
-0.0494894
-0.0495156
-0.159047
-0.463537
-0.161544
-0.159002
-0.463538
-0.432285
-0.126798
-0.427078
-0.0886411
-0.122445
-0.247399
-0.494766
-0.189931
-0.239583
-0.276026
-0.161506
-0.166765
-0.0574323
-0.427074
-0.122689
-0.409011
-0.291458
-0.143219
-0.135422
-0.473954
-0.435564
-0.130213
-0.0963549
-0.145818
-0.11198
-0.143236
-0.481845
-0.385683
-0.0807251
-0.380069
-0.0416917
-0.075517
-0.229148
-0.377804
-0.0729081
-0.377803
-0.411429
-0.403698
-0.401117
-0.362035
-0.395895
-0.0572335
-0.34905
-0.0442033
-0.346642
-0.169134
-0.409078
-0.314426
-0.166532
-0.161298
-0.401228
-0.13552
-0.169077
-0.122396
-0.114584
-0.122391
-0.427014
-0.0964122
-0.401149
-0.0990212
-0.436098
-0.0963924
-0.130199
-0.104204
-0.442873
-0.0964295
-0.130118
-0.369806
-0.098957
-0.40349
-0.43502
-0.0963527
-0.130211
-0.0963526
-0.434772
-0.341138
-0.489583
-0.150838
-0.0520038
-0.050229
-0.387956
-0.432328
-0.213599
-0.416656
-0.0965185
-0.13792
-0.104743
-0.239511
-0.205585
-0.354128
-0.349169
-0.0104213
-0.0416744
-0.346322
-0.380046
-0.494856
-0.346178
-0.0416646
-0.369933
-0.330517
-0.364335
-0.0260874
-0.362078
-0.0572824
-0.362065
-0.341167
-0.338531
-0.341161
-0.299487
-0.333317
-0.0807341
-0.41932
-0.416569
-0.411436
-0.0729173
-0.341156
-0.036462
-0.338236
-0.341406
-0.00260471
-0.354212
-0.0494788
-0.229175
-0.221374
-0.458408
-0.46618
-0.362014
-0.364653
-0.0599006
-0.362031
-0.369819
-0.403691
-0.14299
-0.481565
-0.145641
-0.143177
-0.481616
-0.447929
-0.15103
-0.455759
-0.338587
-0.330772
-0.510606
-0.0364502
-0.333317
-0.0676946
-0.330738
-0.346342
-0.106607
-0.197866
-0.34114
-0.192704
-0.190051
-0.494843
-0.224266
-0.19004
-0.338559
-0.0988157
-0.122362
-0.223982
-0.356838
-0.322918
-0.372405
-0.143154
-0.114594
-0.216192
-0.0754592
-0.315085
-0.348957
-0.119514
-0.338549
-0.333318
-0.192652
-0.34117
-0.307291
-0.0677094
-0.502607
-0.0651168
-0.369839
-0.494769