# vtk DataFile Version 2.0
Unstructured Grid by M++
ASCII
DATASET UNSTRUCTURED_GRID
POINTS 15808 float
  0.804688   0.710938 0
  0.804688   0.742188 0
  0.882812   0.984375 0
  0.812500   0.937500 0
  0.796875   0.984375 0
  0.875000   0.726562 0
  0.804688   0.656250 0
  0.945312   0.625000 0
  0.867188   0.828125 0
  0.773438   0.984375 0
  0.953125   0.546875 0
  0.781250   0.984375 0
  0.781250   0.976562 0
  0.976562   0.882812 0
  0.906250   0.945312 0
  0.953125   0.632812 0
  0.828125   0.734375 0
  0.937500   0.562500 0
  0.757812   1.000000 0
  1.000000   0.539062 0
  0.820312   0.976562 0
  0.953125   0.773438 0
  0.773438   0.937500 0
  0.828125   0.929688 0
  0.789062   0.937500 0
  0.835938   0.937500 0
  0.898438   0.750000 0
  0.921875   0.773438 0
  0.984375   0.523438 0
  0.804688   0.960938 0
  0.859375   0.960938 0
  0.765625   0.617188 0
  0.820312   0.945312 0
  0.804688   0.992188 0
  0.914062   0.921875 0
  0.835938   0.546875 0
  0.929688   0.945312 0
  0.953125   0.992188 0
  0.828125   0.507812 0
  0.859375   0.625000 0
  0.796875   0.734375 0
  0.789062   0.726562 0
  0.789062   0.781250 0
  0.953125   0.929688 0
  0.851562   0.531250 0
  0.757812   0.750000 0
  0.867188   0.578125 0
  0.812500   0.976562 0
  0.929688   1.000000 0
  0.773438   0.710938 0
  0.953125   0.804688 0
  0.867188   0.546875 0
  0.898438   1.000000 0
  0.906250   0.992188 0
  0.937500   0.953125 0
  0.929688   0.953125 0
  0.773438   0.796875 0
  0.937500   0.945312 0
  0.929688   0.937500 0
  0.765625   0.789062 0
  0.757812   0.945312 0
  0.968750   0.648438 0
  0.773438   0.851562 0
  0.937500   1.000000 0
  0.851562   0.703125 0
  0.789062   0.945312 0
  0.968750   0.507812 0
  0.804688   0.984375 0
  0.765625   0.953125 0
  0.859375   0.539062 0
  0.914062   0.593750 0
  0.851562   0.835938 0
  0.789062   0.812500 0
  0.953125   0.960938 0
  0.851562   0.562500 0
  0.781250   0.804688 0
  0.945312   0.953125 0
  0.765625   1.000000 0
  0.757812   0.992188 0
  0.765625   0.992188 0
  0.812500   0.750000 0
  1.000000   0.929688 0
  0.835938   0.687500 0
  0.812500   1.000000 0
  0.914062   0.960938 0
  0.921875   0.960938 0
  0.921875   0.953125 0
  0.781250   0.859375 0
  1.000000   0.765625 0
  0.890625   0.742188 0
  0.992188   0.812500 0
  0.898438   0.953125 0
  0.796875   0.953125 0
  0.976562   0.515625 0
  0.906250   1.000000 0
  0.914062   1.000000 0
  0.914062   0.992188 0
  0.984375   0.804688 0
  0.984375   0.664062 0
  0.812500   0.523438 0
  0.859375   0.929688 0
  0.867188   0.921875 0
  0.898438   0.664062 0
  0.867188   1.000000 0
  0.875000   1.000000 0
  0.867188   0.992188 0
  0.875000   0.992188 0
  1.000000   0.953125 0
  0.835938   0.804688 0
  0.937500   0.789062 0
  0.906250   0.671875 0
  0.914062   0.679688 0
  0.945312   0.937500 0
  0.851562   0.921875 0
  0.945312   0.539062 0
  0.765625   0.976562 0
  0.937500   0.531250 0
  0.757812   0.968750 0
  0.828125   0.679688 0
  0.820312   0.968750 0
  0.812500   0.968750 0
  0.992188   0.531250 0
  0.921875   0.976562 0
  0.773438   0.976562 0
  0.773438   0.625000 0
  0.843750   0.945312 0
  0.929688   0.781250 0
  0.914062   0.984375 0
  0.828125   0.953125 0
  0.890625   0.710938 0
  0.835938   0.968750 0
  0.835938   0.960938 0
  0.828125   0.968750 0
  0.898438   0.718750 0
  0.929688   0.976562 0
  0.875000   0.976562 0
  0.757812   0.937500 0
  0.929688   0.500000 0
  0.929688   0.960938 0
  0.773438   0.765625 0
  0.835938   0.515625 0
  0.968750   0.984375 0
  0.960938   0.781250 0
  0.906250   0.960938 0
  0.906250   0.953125 0
  0.898438   0.968750 0
  0.898438   0.960938 0
  0.968750   0.703125 0
  0.796875   0.562500 0
  0.851562   0.976562 0
  0.851562   0.968750 0
  0.781250   0.687500 0
  0.890625   0.992188 0
  0.796875   0.593750 0
  0.890625   0.796875 0
  0.789062   0.976562 0
  0.968750   0.476562 0
  0.960938   0.468750 0
  0.890625   0.968750 0
  0.890625   0.960938 0
  0.953125   0.718750 0
  0.898438   0.804688 0
  1.000000   0.820312 0
  0.968750   0.562500 0
  0.789062   1.000000 0
  0.960938   0.554688 0
  0.781250   0.992188 0
  0.867188   0.937500 0
  0.929688   0.695312 0
  0.914062   0.765625 0
  0.906250   0.726562 0
  0.859375   0.921875 0
  0.867188   0.914062 0
  0.843750   0.960938 0
  0.851562   0.953125 0
  0.843750   0.953125 0
  0.921875   0.742188 0
  0.882812   0.484375 0
  0.914062   0.734375 0
  0.882812   0.476562 0
  0.960938   0.992188 0
  0.960938   0.984375 0
  0.859375   0.984375 0
  0.867188   0.968750 0
  0.937500   0.757812 0
  0.898438   0.500000 0
  0.929688   0.750000 0
  0.890625   0.492188 0
  0.898438   0.492188 0
  0.890625   0.484375 0
  0.875000   0.945312 0
  0.828125   0.539062 0
  1.000000   0.679688 0
  0.960938   0.695312 0
  0.992188   0.953125 0
  0.953125   0.687500 0
  0.898438   0.937500 0
  0.414062   0.523438 0
  0.406250   0.515625 0
  0.468750   0.523438 0
  0.398438   0.679688 0
  0.429688   0.562500 0
  0.257812   0.906250 0
  0.859375   0.835938 0
  0.250000   0.898438 0
  0.851562   0.828125 0
  0.906250   0.781250 0
  0.281250   0.867188 0
  0.882812   0.757812 0
  0.257812   0.843750 0
  0.492188   0.687500 0
  0.906250   0.750000 0
  0.281250   0.835938 0
  0.390625   0.843750 0
  0.398438   0.851562 0
  0.906250   0.703125 0
  0.281250   0.789062 0
  0.593750   0.132812 0
  0.898438   0.695312 0
  0.273438   0.781250 0
  0.585938   0.125000 0
  0.445312   0.726562 0
  0.406250   0.523438 0
  0.445312   0.781250 0
  0.398438   0.523438 0
  1.000000   0.453125 0
  0.437500   0.781250 0
  0.468750   0.726562 0
  0.960938   0.640625 0
  0.882812   0.679688 0
  0.257812   0.765625 0
  0.570312   0.109375 0
  0.890625   0.687500 0
  0.265625   0.773438 0
  0.578125   0.117188 0
  0.382812   0.664062 0
  0.390625   0.671875 0
  0.921875   0.718750 0
  0.296875   0.804688 0
  0.609375   0.148438 0
  0.429688   0.500000 0
  0.421875   0.500000 0
  0.367188   0.757812 0
  0.406250   0.859375 0
  0.429688   0.656250 0
  0.492188   0.546875 0
  0.484375   0.539062 0
  0.484375   0.546875 0
  0.882812   0.687500 0
  0.257812   0.773438 0
  0.500000   0.851562 0
  0.453125   0.734375 0
  0.492188   0.539062 0
  0.421875   0.593750 0
  0.429688   0.601562 0
  0.437500   0.609375 0
  0.906250   0.789062 0
  0.281250   0.875000 0
  0.414062   0.570312 0
  0.460938   0.828125 0
  0.421875   0.570312 0
  0.429688   0.570312 0
  0.437500   0.578125 0
  0.257812   0.789062 0
  0.890625   0.718750 0
  0.265625   0.804688 0
  0.265625   0.796875 0
  0.882812   0.718750 0
  0.257812   0.804688 0
  1.000000   0.515625 0
  0.375000   0.601562 0
  0.382812   0.609375 0
  0.406250   0.570312 0
  0.398438   0.570312 0
  0.406250   0.578125 0
  0.390625   0.812500 0
  0.460938   0.632812 0
  0.453125   0.625000 0
  0.390625   0.875000 0
  0.953125   0.460938 0
  0.257812   0.796875 0
  0.882812   0.710938 0
  0.265625   0.906250 0
  0.867188   0.835938 0
  0.953125   0.492188 0
  0.960938   0.500000 0
  0.281250   0.953125 0
  0.460938   0.515625 0
  0.273438   0.945312 0
  0.453125   0.507812 0
  0.265625   0.937500 0
  0.398438   0.625000 0
  1.000000   0.640625 0
  0.375000   0.726562 0
  0.976562   0.656250 0
  1.000000   0.648438 0
  0.375000   0.734375 0
  0.476562   0.531250 0
  0.453125   0.789062 0
  0.414062   0.531250 0
  0.914062   0.453125 0
  0.421875   0.531250 0
  0.437500   0.562500 0
  0.437500   0.554688 0
  1.000000   0.710938 0
  0.375000   0.796875 0
  0.429688   0.554688 0
  0.468750   0.804688 0
  0.429688   0.546875 0
  0.929688   0.468750 0
  0.859375   0.453125 0
  0.867188   0.632812 0
  0.437500   0.859375 0
  0.875000   0.640625 0
  0.906250   0.679688 0
  0.281250   0.765625 0
  0.414062   0.750000 0
  0.726562   0.093750 0
  0.406250   0.750000 0
  0.406250   0.664062 0
  0.890625   0.679688 0
  0.265625   0.765625 0
  0.500000   0.671875 0
  0.898438   0.687500 0
  0.273438   0.773438 0
  0.484375   0.515625 0
  0.421875   0.679688 0
  0.882812   0.703125 0
  0.945312   0.453125 0
  0.476562   0.507812 0
  0.414062   0.671875 0
  0.281250   0.843750 0
  0.421875   0.562500 0
  0.960938   0.484375 0
  0.335938   0.570312 0
  1.000000   0.742188 0
  0.375000   0.828125 0
  0.476562   0.875000 0
  0.468750   0.867188 0
  0.484375   0.859375 0
  0.484375   0.867188 0
  0.460938   0.796875 0
  0.421875   0.539062 0
  0.921875   0.460938 0
  0.453125   0.796875 0
  0.414062   0.539062 0
  0.500000   0.562500 0
  0.500000   0.507812 0
  0.414062   0.867188 0
  0.437500   0.687500 0
  0.859375   0.679688 0
  0.257812   0.875000 0
  0.859375   0.804688 0
  0.453125   0.820312 0
  0.414062   0.562500 0
  0.460938   0.687500 0
  0.398438   0.820312 0
  0.882812   0.468750 0
  0.257812   0.554688 0
  0.859375   0.484375 0
  0.484375   0.656250 0
  0.437500   0.531250 0
  0.445312   0.671875 0
  0.437500   0.804688 0
  0.398438   0.546875 0
  0.445312   0.812500 0
  0.406250   0.554688 0
  0.281250   0.898438 0
  0.382812   0.835938 0
  0.414062   0.835938 0
  0.867188   0.460938 0
  0.890625   0.789062 0
  0.265625   0.875000 0
  0.867188   0.804688 0
  0.265625   0.882812 0
  0.867188   0.812500 0
  0.492188   0.718750 0
  0.468750   0.640625 0
  0.406250   0.828125 0
  0.492188   0.515625 0
  0.500000   0.859375 0
  0.437500   0.718750 0
  0.437500   0.570312 0
  0.484375   0.679688 0
  0.445312   0.507812 0
  0.390625   0.562500 0
  0.445312   0.789062 0
  0.406250   0.531250 0
  0.476562   0.570312 0
  0.437500   0.507812 0
  0.929688   0.726562 0
  0.304688   0.812500 0
  0.617188   0.156250 0
  0.273438   0.890625 0
  0.265625   0.828125 0
  0.437500   0.539062 0
  0.445312   0.867188 0
  0.273438   0.835938 0
  0.468750   0.718750 0
  0.437500   0.664062 0
  0.453125   0.679688 0
  0.382812   0.718750 0
  0.695312   0.062500 0
  0.468750   0.562500 0
  0.882812   0.648438 0
  0.406250   0.546875 0
  0.484375   0.570312 0
  0.484375   0.625000 0
  0.398438   0.539062 0
  0.898438   0.781250 0
  0.273438   0.867188 0
  0.406250   0.562500 0
[...]
POINT_DATA 15808
SCALARS scalar_value float 1
LOOKUP_TABLE default
-0.301145
-1.0208
1.16722
-0.206191
0.658347
1.17345
1.06687
0.711344
0.403354
3.68518
-0.299669
-0.989531
0.0661459
1.4254
-1.64478
-1.05198
-0.886593
0.200971
0
0.0135902
-0.360672
0.227887
-4.59339
0.386262
2.57181
-0.126113
0.840012
0.0106718
-1.18283
-5.91355
2.09761
-1.05541
-0.54239
1.21009
1.38465
-0.63451
1.17146
0.622746
-0.0359575
0.328622
-1.40918
-2.78915
0.56338
-1.06677
0.981546
-1.31034
-0.141252
0.470222
0
-1.92053
-0.536322
1.13069
0
-0.0320987
-0.132032
1.33409
1.36016
-0.0326746
1.38548
-1.41708
1.07414
1.22059
-1.43076
0
0.860488
-2.38579
0.687795
2.97664
3.36431
-0.210479
-0.0508575
-1.01038
-0.210286
-0.367924
1.02004
-1.11318
-0.529521
0
-0.593792
0.467233
0.656014
0.94403
-0.703227
0
-0.664236
0.871269
1.44732
-1.46875
2.16639
-0.703086
0.323133
-1.34349
-0.752067
0.927205
0
0
-0.683144
-1.2292
-0.777873
0.355502
1.25272
0.528761
1.29363
0
0
0.181041
2.16246
-0.54845
0.43769
-1.2411
1.35309
-0.874319
0.438887
-0.713802
-0.629312
1.24037
-1.69801
0.215178
-0.502918
-3.61904
-2.19322
0.00280506
0.244148
0.134759
-0.640564
-0.47892
0.572118
-2.11499
1.71561
-0.806255
-1.71751
1.07404
-4.9011
2.26185
0.330064
1.93928
1.57326
-2.39878
1.07895
0.238005
0.837544
0.518495
-0.434863
-0.226472
-1.75381
-3.62542
-2.95145
0.624386
-0.00678213
0.779886
3.48998
2.7396
0.672234
-1.75675
-1.25532
-1.15062
1.82836
0.535368
-3.61466
-3.50132
1.46336
1.24952
0.0730357
1.92395
0
1.40711
1.31347
0.501245
-1.62325
1.33598
2.42964
0.562265
0.541288
2.85114
1.56594
1.62722
0.184391
1.24763
1.2897
3.84069
-0.192863
0.0106983
-0.8793
1.91185
-0.69785
-1.2939
-0.941631
-0.476755
2.68977
3.19524
-1.33618
-0.269466
-0.74105
0.275877
-0.115551
-1.09836
-1.82751
-6.65321
-6.66675
2.76683
1.32206
-1.61329
0.995178
-0.0747879
1.31371
-0.588981
3.13654
-0.205488
0.0547329
1.23648
-0.508428
2.68165
-0.958511
2.37074
6.3888
2.42304
-0.951365
4.02827
2.163
-0.910104
25.8667
-1.62586
-5.15686
-2.22355
0.561942
-1.0222
-2.15364
0.48015
0.857155
1.83616
0.163531
-1.85096
0.859129
-0.39397
-3.68745
0.784648
0.200417
-1.24685
0.277002
0.812108
0.223245
-1.41864
0.934899
0.63522
2.17841
-1.88568
-0.0987814
-0.555712
-0.459068
0.395883
-0.969235
-1.93206
-2.29206
-3.20139
-0.834275
-2.18871
2.12692
0.698436
-0.160438
-2.65001
-3.02716
1.06794
-1.46907
0.173806
-1.11906
-1.53991
-0.579615
-0.324875
-0.0783081
-0.633234
-1.47042
-1.17332
0.474018
1.34217
0.46114
2.09469
0.444711
-2.00333
-1.26446
3.0403
-0.190622
0.387702
-0.877537
0.529776
0.966259
1.00792
-0.628985
0.7232
1.2027
-0.0528752
1.36075
3.00168
0.997735
-1.26055
-0.178736
0.000815986
1.45674
0.101857
-0.122127
-6.45371
-2.32347
1.40333
-0.956368
0.698621
-0.565031
-1.31594
-1.37411
0.329534
0.759088
0.182845
1.32537
0.697185
-2.38603
0.22005
2.28595
-0.708221
0.0381334
-0.894123
-2.15316
-1.2493
2.40886
0.470839
-1.3532
4.78791
-1.02442
1.81655
-2.93451
-1.14269
-1.33271
-0.681956
-0.938713
-0.12352
0.0189605
0.851632
0.685998
0.869114
2.55847
-2.07282
1.25516
0.54968
-2.78821
2.16411
-3.54401
0.520323
0.62331
-2.38985
-1.86961
5.19806
0.164818
0.7994
0.376172
-1.5154
-0.643065
-2.04119
-0.583816
-1.13091
-3.8681
1.68101
1.17507
1.39584
-4.74188
-0.0571635
-0.719758
-1.77992
-0.238519
-1.21971
-1.38173
-0.0815047
1.45957
1.1967
3.08201
1.17581
0.427568
-1.28693
0.51967
0.105848
-0.892985
1.0902
-0.195874
-1.44902
-1.91136
0.00506692
-2.70854
-4.53043
0.380827
-0.335464
-2.42551
-2.35207
0.979643
-0.66006
-2.70578
0.65273
1.43319
1.30256
0.0869808
1.02951
-3.18357
0.600499
0.198176
-0.238055
-3.01434
1.42566
-0.908842
-1.98808
-0.752169
-1.76649
-1.48797
-3.44569
-1.48232
0.415
-0.94293
-0.602023
-0.913725
-0.00431804
-1.5413
2.13834
-1.15588
-0.166064
1.12585
0.149457
0.718154
-0.878702
-4.88367
1.66894
-1.20666
0.808845
-1.61512
0.586212
-1.25774
-1.77858
0.361744
1.72753
-1.52468
-0.106768
4.47205
0.353063
0.282644
-0.118245
0.101541
-0.805391
-2.14426
2.46592
-4.41482
-2.73884
0.354213
0.80748
0.565102
-0.0576476
0.706949
0.717487
-3.01763
-0.334187
-0.0530399
0.743243
-5.3387
1.93342
-0.222403
-0.565343
-2.04466
-2.85801
-3.63466
-1.22116
-0.241703
-2.81656
1.69575
-1.16419
0.333183
-3.90531
-2.93572
0.745648
-0.370934
1.08494
-0.341441
1.82918
-1.07517
2.97947
-1.02286
1.39781
-0.26626
-0.0265839
1.13176
-1.26992
-0.356583
0.968564
0.580839
-0.628605
1.7349
0.621398
-1.63375
1.38997
1.82338
-2.82883
-0.272286
3.42984
1.44023
2.28052
-0.171499
0.640261
-0.516575
0.531625
1.85678
0.550681
1.86159
2.56311
-0.067059
3.09212
-0.741359
-1.45175
2.17
1.54596
1.77983
2.38875
1.48303
1.34548
0.109889
0.341805
-3.30486
-1.33341
1.02689
2.89112
-2.13438
1.27282
-2.20171
-1.78709
0.42758
-0.196999
-0.716155
-1.61757
-1.19705
0.0506185
-0.0328777
-0.552854
-2.23472
1.45506
-1.50288
-0.0152348
-0.890537
-2.37283
0.712842
-0.721516
-0.754217
4.75387
3.47732
3.126
-1.76807
0.944827
-0.929943
-0.0286225
0.0602217
-3.32468
-0.877863
-1.12479
-0.585645
0.872991
2.45371
-0.942296
0.31899
-2.23143
-2.70201
-0.779665
-2.30901
-0.511945
3.22574
2.22801
-2.5503
0.620247
-1.90368
-0.351092
-1.17896
1.5803
-0.470296
-1.23355
-1.35976
0.621182
0.988877
-0.778069
1.07067
0.391256
1.11898
0.275684
0.351843
-1.44241
-0.160286
-0.1538
-0.411692
-0.254428
0.458981
-0.400851
0.930164
-2.00524
-2.11133
2.74446
2.38774
-1.99278
-0.710859
2.28011
3.52845
2.09975
0.360143
2.49553
2.17029
3.31186
-1.76822
-1.27214
-1.17538
-1.40612
0.0862407
0.59084
-0.473158
4.37754
2.57311
0.0338869
-1.58327
1.99223
0.132309
0.821264
-5.316
-2.47511
-1.34482
-0.620241
0.0569408
0.194552
3.81091
-1.11454
-0.599058
-3.31011
1.26766
-0.749351
0.73768
2.3174
1.15349
-0.26963
-0.881037
-1.89513
0.491281
-1.77873
-0.313327
-3.18951
-1.4517
-1.01468
-1.34962
-2.05481
0.271221
0.123605
3.07007
-0.254543
0.684978
-1.0109
-1.13051
-1.68565
-1.71352
-1.50259
-0.817137
-2.94734
-0.982739
5.15757
-3.03895
-2.57753
-4.09366
-0.347641
-1.01573
-0.243645
-2.9606
0.364749
0.70704
-0.611211
1.0534
1.80209
0.690871
0.196987
0.418746
0.646548
-0.0406077
-1.56402
-2.24256
-1.08957
0.286371
-1.25949
-1.33076
-0.613547
1.10035
2.5256
0.283053
-0.501198
-2.33189
-0.594842
-0.0966319
1.21046
-1.23484
1.68952
0.00471976
1.05507
4.19672
-0.11226
0.248356
-0.109817
1.06945
-0.723287
-0.313222
-0.441003
-0.167697
0.278655
-0.485569
0.657356
-0.351548
-0.449003
0.200715
-0.0853784
-1.30849
-0.429168
-3.69306
-1.16566
2.63024
-0.218165
1.33089
-1.41958
-0.794195
-1.20103
1.70624
-0.824894
0.673791
-1.4603
-0.0436598
-0.726973
-0.750458
-0.860007
5.01181
1.76232
0.145203
0.117263
-0.151279
0.688692
0.193022
-0.281948
1.47414
-0.32469
-0.227679
0.736915
-0.457569
-0.466613
0.384699
0.946988
-1.4529
-0.0431281
1.96982
-0.0188407
0.296208
1.13106
2.34279
0.520833
1.23439
-0.61869
-0.216058
-2.1144
-1.02207
0.22941
0.685633
-0.885603
-1.23841
-0.344378
0.143971
0.233516
-1.80234
-2.47439
1.97029
-1.00398
-0.710721
0.375758
0.405652
-2.32924
-1.87061
-1.27574
0.00915443
-0.227331
-0.269046
-1.45995
-0.12385
-2.97452
-0.507194
-0.260389
1.16507
-0.0468386
1.52224
1.06348
0.424747
1.08289
0.920966
0.11754
0.236277
1.06832
-1.18747
-2.21417
0.580139
1.23946
1.2125
0.600137
-1.58734
-1.53701
-0.898285
-0.0536828
1.27698
-1.82437
-1.0817
-2.33941
1.09606
-1.11896
-1.16401
0.543769
-0.558325
-0.635736
-3.29223
-2.63087
-0.257703
-0.787784
0.76495
-0.78579
1.25191
-0.593909
0.751144
-6.85498
-1.40129
-1.57767
0.0966031
-1.31519
-2.37268
0.231507
-1.42783
0.208021
1.9887
-0.903092
3.61863
-3.08013
0.542475
0.698412
-0.150943
4.16768
0.486328
0.882629
-2.06751
1.92981
-0.966308
-0.913114
-1.79705
0.715042
-1.21515
-1.53776
-0.384463
-0.942166
0.679451
-0.855195
-2.17208
0.464037
0.759431
-0.222163
0.158179
1.39553
0.772814
-3.61479
0.312152
-2.00174
0.864583
1.22557
-0.944529
0.723657
-2.98581
-0.284031
-0.449497
1.41461
2.0404
-0.0905606
2.66009
-1.64007
1.23741
-0.910063
-2.75264
0.991676
0.413175
1.50191
-1.72881
0.634741
-0.401584
0.477091
0.649716
0.5708
0.856876
0.027389
-2.11847
-1.15614
1.65357
0.0139512
-0.211537
-2.06171
0.527937
-0.176886
-1.7977
0.852536
-0.350145
-0.195072
0.393149
-1.04899
-2.64613
0.99477
-3.07164
0.855947
0.950999
1.72632
0.653012
3.70748
0.611106
-0.653352
1.08044
-3.11072
0.216567
1.09161
-2.03789
6.00822
-2.37259
-2.58799
2.8846
0.343377
-1.24114
0.46092
1.54382
2.48105
0.466119
1.23436
-0.434133
-0.707269
-0.982565
0.0916679
-1.18649
-0.338902
-3.05323
2.22632
0.251746
1.06454
0.288197
0.270494
2.28329
-1.37181
0.341805
-0.688531
-1.18012
1.04491
-0.0101581
-0.277688
-0.561447
2.01207
-1.17646
0.442322
-0.869789
0.00767386
0.595611
0.528656
-5.26618
-0.859769
-2.52294
0.2258
-0.515548
0.318104
-0.435163
2.07634
0.587538
0.845465
-0.588029
5.50244
0.165976
0.11421
4.30221
-2.10713
10.9797
1.61647
-1.83848
4.74088
0.613339
0.37776
0.965881
1.72042
0.197584
0.444233
1.56064
-0.360065
1.0921
-4.28055
-2.07499
1.50174
1.37847
3.58248
-0.186244
0.026141
0.200054
-0.890207
0.406285
-0.570855
1.58102
1.431
2.3632
-1.18419
-0.467937
0.71829
0.906492
-0.376354
0.443355
0.297922
0.68792
-0.374706
-0.115359
0.630678
1.48948
3.92952
0.194488
0.0234178
-0.688786
0.155264
0.095755
1.35569
1.47661
-1.2304
0.509355
0.156093
1.07934
0.0775568
0.375163
1.06259
3.95043
-0.0489148
-0.874541
-0.165218
-1.98404
1.74185
1.03991
1.05358
0.588277
-0.299618
2.5291
0.85464
1.11532
-1.79684
-2.32978
-0.700412
1.4212
0.223908
1.24223
1.19187
-2.14471
0.1755
-1.05695
-1.05547
-0.351849
0.945083
0.788779
0.459535
1.41816
1.61409
-0.587121
0.546914
-0.311634
1.48947
-1.6398
0.50259
0.519915
0.940486
-2.5891
-0.545775
-0.045042
-0.0251101
1.54334
-2.69596
-0.0612916
1.37157
-0.526643
0.455069
-0.364371
1.15102
0.120383
0
-1.85834
-1.37413
-0.515798
2.28506
1.0802
-0.208253
-1.30134
0.234214
-0.285777
-0.198076
-1.39888
-0.216653
-0.24811
0.95509
-0.260324
-0.376687
1.55892
1.11211
1.34046
-1.17002
-0.89131
-0.250554
0.420907
-0.0806486
-0.475766
3.25222
-0.768094
-1.78063
-3.61456
-0.44283
0.923351
0.681978
2.67935
-0.635539
1.77481
2.04495
0.749036
0.313665
-1.05155
-1.07029
-1.66126
-1.1155
-0.427643
-0.403956
-0.340587
-0.815006
1.79687
0.62174
1.36899
-1.46621
-1.12976
0.0483387
2.24853
-0.981597
-2.66809
-0.356552
1.23818
0.0400122
4.16818
-1.96964
-1.08237
0.923977
-0.580179
0.443932
-1.51145
3.47452
-3.46567
-1.19303
-0.469019
-0.194004
0.736176
-0.335299
0.4993
0.704839
-1.2444
-0.806273
2.54854
-0.153456
-0.950509
0
0.796514
1.72444
-1.95367
0.108209
-0.999596
0.980207
0.721041
-0.266722
-0.0708339
-0.65929
-2.41607
-0.550218
-3.3517
-6.16371
0.285429
0.266919
-3.40833
-2.42362
0.205806
0.883542
-2.835
-0.0155954
-0.349114
0.248729
-0.618593
0.933493
-0.0620288
-0.262181
0.45752
-0.558851
2.69462
1.00526
-0.0606259
0.289783
0.774893
-0.526113
-0.118809
0.587096
-2.18051
-0.232046
-1.11134
0.192019
-1.39869
0.38156
0.493832
0.453845
0.532279
5.39678
0.762845
-0.200087
-2.46546
-4.03116
-2.31939
2.0068
-0.740398
-2.03281
0.0545146
-0.452936
-1.95408
0.882764
-0.539802
-0.389093
0.236416
-0.471033
0.281483
0.00930689
0.0401629
-0.424927
-1.18536
0.0375883
1.567
1.04449
0.769331
-0.535136
0.443618
-0.159682
-1.42885
0.999917
-0.461673
-0.86459
0.646743
0.971369
-1.16342
-1.00149
0.50871
0.626435
0.510753
1.24338
2.14803
-3.51833
0.392652
-1.79491
-0.34656
0.271047
-0.474219
-0.466468
-1.28787
-1.27297
2.5906
-0.034595
3.64726
-0.475132
1.02891
2.61861
0.437793
-0.744407
-1.04353
1.1313
0.910807
-2.33176
-1.36097
0.406859
1.03652
-0.387238
-0.337088
-1.56707
0.60419
0.395455
-0.327065
-1.26302
0.647044
3.74386
-0.94599
-0.054916
-1.81746
-1.37513
0.174811
0.554601
1.94965
1.02148
-1.46471
-1.21528
-0.0797038
0.357545
1.2307
0.3645
-0.170908
-0.0477881
0.421866
0.732406
-1.39764
-1.67889
0
0.0812177
0.577084
-0.216005
0.0112132
1.65656
0
-2.61958
-1.25912
0.731849
-1.13941
-0.639121
-1.84728
-1.50238
0.0540082
1.94019
2.62186
0.0755892
0.886559
2.05572
1.66462
1.23223
-1.06467
0.122246
0.671916
-1.29798
0.115542
0.267721
-1.77449
-0.526562
-1.27931
0.294197
0.189475
-0.727599
-0.288562
-3.32506
0
1.21569
-0.543966
0.683396
1.69047
-1.2831
0.90096
1.03242
-0.229879
-1.78674
0.11853
-0.429817
0.391378
1.34925
-1.92329
-0.914654
-1.0063
0.996427
-1.06953
-0.559719
-2.34189
1.45397
-5.23236
0.52109
-1.24499
0.285329
-1.05289
-0.522655
-2.15674
0.834149
0.0665642
-4.03916
-0.634896
0.242252
0.790254
1.94232
-1.68931
-3.79384
-0.616807
-1.11376
-0.0993527
-1.63993
-1.22129
-3.11309
0.569582
-3.09113
-0.101515
-0.741469
-1.07931
0.803722
1.60086
0.0472797
0.854796
-0.00789407
-2.9368
0.320422
-2.8327
1.27946
1.70065
0.589891
1.45449
1.05633
0.537014
1.41189
-0.799193
0.125205
1.34622
2.23745
-1.08903
-0.435979
-1.23496
-0.887635
-0.491588
-0.501872
0.660951
-1.4078
0.380686
3.35332
1.21203
-1.366
-0.344405
0.907848
-0.614987
0.888561
0.101063
-0.445887
-1.06981
0.171336
0.125607
-1.87184
-1.21274
1.13801
0
1.52062
0.303776
-1.1968
0.827202
3.06401
0.774861
1.08601
0.998783
0.771579
0.272592
-1.06668
0.343128
-0.226312
-0.651069
-1.61767
0.926167
-0.635149
-4.77268
0.552986
-0.790378
1.48323
-4.21361
0.775289
-0.11981
-1.59939
2.18246
0.436417
1.50391
-1.61986
-4.12219
-0.909033
-0.847362
1.44444
0.228574
1.59303
-3.01901
1.11603
1.15269
-1.36263
0.422171
-0.26793
0
3.00381
0.398726
0.405568
-1.78319
0.347538
0.0649095
-0.499619
0.21534
0.495639
1.68407
1.77515
1.71482
2.27843
0.561553
-0.985675
-0.509907
-0.412985
-0.645351
0.589156
-1.66427
2.33338
0.571152
-0.627921
0.0363364
-0.400185
0.133809
-0.209162
0.0423982
-0.0234693
0
0.626401
0.196026
-1.56189
-0.442179
1.29384
-0.706805
1.49295
0.349994
-0.0387161
-0.59582
0
2.55459
0.729717
2.48513
-2.5126
-0.0227172
1.74944
2.15885
-2.02213
2.70384
1.37567
-1.94929
-1.58234
1.01192
1.87602
-1.10931
-0.339108
-0.289238
1.02151
-0.416899
1.66758
1.2396
0.470251
-3.10898
-3.18043
-0.534896
-3.89322
-3.79982
0.577299
0.977407
-1.39792
-0.0352785
0.997155
-1.38
-2.69906
-0.618396
0.734398
0
-0.818509
0.778225
0
-1.88886
0.541276
0.268614
-2.70223
-0.817601
-0.711196
0.479617
-1.03826
0.418771
-1.29236
-0.440669
0.0713266
4.32216
0.414955
-1.03795
-1.30165
-0.514131
-0.879925
1.65677
0.937242
0.212743
-0.100508
6.84793
0.0179875
0.047808
0.595117
-1.55494
-0.0338718
0.34821
1.49895
-5.28688
2.61602
-0.364173
-1.19831
-0.710915
-0.702246
-3.41316
-0.497162
0.732235
-2.18378
-0.171713
0.435402
-1.35492
0.832523
-0.0875894
0.600157
-1.0654
-0.300969
1.73576
1.04903
1.11497
0.239425
-2.41251
0.508624
3.58113
4.29972
-1.8651
-0.446334
0.746319
-0.754689
-0.875761
1.47165
-0.927554
-1.49357
-3.68599
-0.645186
3.44853
2.09192
-2.05804
2.08903
0.948844
0.432369
-2.10347
-1.30547
-1.43137
-2.23083
1.17203
-1.05638
-0.629124
-2.74441
-1.2427
0.358432
-0.55745
0.825341
0.934286
0.622259
0.234337
1.48126
0.810172
-1.12269
0.903154
1.53974
1.8345
0.181721
0.32415
0.689151
4.87929
-0.818483
-0.000999561
2.47705
0.714782
0.384153
-0.435645
-0.0944634
0.482223
0.874943
1.59794
-1.00097
-0.293144
0.212845
1.08001
0.123077
-0.301915
-0.272534
0.831871
-0.0475356
1.02245
-1.65159
-0.535263
0.527032
1.51008
2.28559
0.010682
-1.25128
0.270891
0.0527884
0.202433
0.218056
0.308382
0.755737
1.8943
0.149174
-2.87425
-1.47451
1.00101
2.99019
1.52927
1.42263
-1.04191
1.6487
0.624105
0.323007
-1.49902
-0.863106
-1.25714
-3.32194
-0.792202
0.624696
0.0125515
-3.71266
-3.20906
0.507029
-0.579365
1.68934
0.753985
1.37873
0.28068
0.682168
-0.949323
-1.90003
-0.698183
0.421317
2.62528
1.63348
-0.495753
-0.798225
0.290594
0.661841
-2.09753
-0.0713342
-2.82773
2.59647
-2.99623
1.46896
0.95655
-0.22911
0.783942
-1.26989
0.616519
-0.150515
-0.329568
0.348526
-0.00293214
-0.682253
-3.39586
0.914131
-0.522615
0.416387
2.0081
-0.256942
-0.459059
0.266222
-0.113833
-0.013543
-0.0342146
-1.7539
-1.76466
0.821503
0.787455
-0.713814
0.264763
5.84424
1.23808
-0.0240375
-3.5291
-0.301485
1.12167
-0.117668
0.356352
-1.82639
1.5901
1.80127
0.274472
-0.18379
0.449132
-0.0210325
-0.643003
-1.14893
2.82831
-1.36111
-3.20031
-0.463075
-1.54011
-0.749439
-1.06359
-0.639379
-0.250296
-0.0961779
1.22288
-0.0742181
-1.31686
-1.56272
0.211738
1.29121
0.95235
-1.2145
0.262362
4.17764
-0.655966
0.0574132
-0.305664
-1.28448
1.69523
-1.20633
2.87027
-0.359566
-1.47606
0.659298
0
0.394909
-0.447371
-0.271674
0.814951
0
3.04472
-0.0098885
1.90937
-1.24379
-2.29286
1.67206
0.123386
-0.621906
1.59365
-1.25096
1.1283
-0.597626
-0.616038
-2.2005
-0.0312706
1.79374
-0.466818
-0.529483
-0.0713983
0.768247
0.0528772
-0.221236
-3.46176
1.14749
0.265007
1.25072
1.21497
2.56755
2.96727
3.28225
0.940632
-0.624046
1.59173
0.323244
0.994514
-0.691856
0.169311
-1.02983
-0.659531
-1.26226
-0.138624
1.03015
-0.594013
0.045378
-2.42849
0
0.382364
-0.483585
0.730996
0.876981
1.66183
1.13857
0.217584
0.636603
1.59158
-0.66294
1.68807
-3.34224
-0.992109
-0.30659
-1.96891
-0.203808
-0.307023
0.0245539
1.72535
0.166152
0.461115
-0.113521
-0.601613
1.1936
-2.7856
0.756954
-0.45261
-1.51783
-0.399474
1.97491
0.517607
0.0918842
0.568465
-3.06303
-1.72562
0.899657
-0.119649
3.8724
-0.49103
4.34769
-2.228
1.96284
0.121804
1.79047
0.830315
0.982593
-0.598012
-0.210982
0.759258
-1.07093
-1.04629
-1.90066
0.747237
0.088352
-0.651383
-0.0645859
-0.494439
2.10229
1.23094
-0.678234
4.21337
-1.16822
1.03438
0.388204
0.572716
-0.132734
-2.25534
0.892786
5.43027
-2.22255
0.63816
-0.495283
0.097741
-0.187675
-0.28279
0.169988
0.652443
0.869624
1.95571
-0.639426
0.507997
-1.22104
0.607285
1.57113
2.7338
1.80544
-0.0801138
-1.57282
-1.54373
0.06046
-1.02003
0.949716
0.0941914
1.25709
-0.473108
-0.222252
0.5105
0.335933
0.618619
0.328288
0.0671886
-0.368443
0.260512
0.388888
0.648568
-0.260343
0.779241
1.21313
-0.143413
0.0712113
-3.57051
0.425582
-0.949581
0.265961
-0.70988
0
1.08483
0.0968283
-2.43976
-1.40718
1.48715
2.08227
1.19433
2.07677
-2.40908
-0.118375
0.265052
0.722336
-1.75127
-0.694792
-1.18142
-0.484912
2.08233
-1.89577
-0.298444
0.222466
-0.395991
-0.974745
-1.49954
-1.46943
0.230753
1.1208
-2.63018
-0.751206
-0.0680042
-1.00904
1.15798
0.53678
0.664412
0.566137
-1.63732
1.61619
0.356207
-1.23445
3.21816
1.21116
-0.618218
0.81735
0.0944131
-0.888272
1.01192
1.04039
-0.913351
1.22896
-3.00508
-1.03153
0.210871
1.24856
-0.863476
-2.52468
-0.838396
0
-1.61362
-1.18873
0.15283
-0.91899
1.97638
0.109833
-0.155449
-0.399763
-1.25328
1.98858
-0.68445
0.907545
0.448979
-0.0893524
0.368477
2.34181
-1.96957
-1.68864
-0.108795
-1.4967
-0.0674029
-0.436954
-1.10884
-0.736769
4.34375
-1.79603
-1.74391
0.647105
3.74709
-2.01096
-2.27331
1.59009
8.56891
-0.210558
2.92361
-0.416911
1.04189
1.76863
0
-0.324714
0.869757
-0.569147
-3.08421
1.75494
-2.49127
1.18398
6.04038
-2.28708
3.53494
1.77081
1.09377
-2.04854
-0.325689
-4.05279
0.380709
-0.797689
-0.801336
1.74003
-0.332758
0.512442
1.81887
2.65241
2.61658
0.428555
0.676473
1.06285
1.06399
0.721906
2.17135
1.84944
0.644125
-1.40888
0.434752
1.07778
1.88286
-0.219365
0.275231
1.99488
2.12676
-2.33148
-2.31309
-0.647551
2.16096
-4.89429
-1.59877
-1.7869
3.01554
-0.249116
1.22554
-0.198055
-3.89873
-1.43642
2.42728
-3.41953
0.327749
-0.336521
1.08654
0
-0.257135
5.99806
0.760524
1.17611
-0.691449
0.57171
0.815435
3.47483
7.40659
0.616996
-2.47574
6.57387
0.253173
-1.80393
0.0255571
-3.33497
0.68272
5.03609
4.34123
-0.63447
-0.555421
2.56697
4.79682
0.761588
4.19389
11.5976
1.19394
1.13549
0.076773
2.78049
0.466579
0.0821825
0.726985
-0.425732
4.87082
-0.256133
1.22631
-1.25905
7.71467
1.92052
2.77222
8.11425
-0.121734
1.42833
0.958165
3.63885
0.819041
-1.83919
11.7441
4.81064
1.90441
-0.64439
-0.278864
3.1975
-1.83632
4.76097
3.62397
2.86245
-4.28355
0.722362
-1.03617
-0.174954
-1.53003
5.19632
3.01594
-3.31083
-3.84607
0.324013
0.187697
-2.49832
1.62721
0.846803
2.04625
0.631597
-0.537464
-0.604734
-3.2051
-0.597781
-0.811152
-0.58864
-1.31942
-2.98014
1.85413
-1.42646
0.803211
3.98587
-1.51934
3.85877
-0.00996145
0.0452864
-0.908588
-1.69837
0.508934
0.372093
-0.458661
0.725149
1.69163
1.05992
-1.26478
1.00644
-8.4911
9.05865
1.07597
-0.75835
7.38374
2.45738
0.3944
2.57708
-0.211792
0.289494
-0.277798
-1.21342
0.220795
-1.00053
-0.0817414
4.33635
1.28026
-0.644277
1.18224
-0.74113
0.736037
0.816021
3.56468