# vtk DataFile Version 2.0
Unstructured Grid by M++
ASCII
DATASET UNSTRUCTURED_GRID
POINTS 4072 float
  0.546875   0.656250 0
  0.546875   0.578125 0
  0.718750   0.625000 0
  0.656250   0.875000 0
  0.734375   0.609375 0
  0.671875   0.859375 0
  0.718750   0.609375 0
  0.656250   0.859375 0
  0.734375   0.593750 0
  0.671875   0.843750 0
  0.578125   0.984375 0
  0.640625   0.734375 0
  0.546875   0.593750 0
  0.593750   0.984375 0
  0.656250   0.734375 0
  0.640625   0.984375 0
  0.703125   0.734375 0
  0.546875   0.781250 0
  0.609375   0.531250 0
  0.546875   0.796875 0
  0.968750   0.531250 0
  0.609375   0.546875 0
  0.890625   0.984375 0
  0.953125   0.734375 0
  0.578125   0.593750 0
  0.515625   0.843750 0
  0.953125   0.625000 0
  0.890625   0.875000 0
  0.781250   0.578125 0
  0.718750   0.828125 0
  0.734375   0.812500 0
  0.640625   0.968750 0
  0.703125   0.718750 0
  0.671875   0.937500 0
  0.734375   0.687500 0
  0.671875   0.953125 0
  0.734375   0.703125 0
  0.656250   0.953125 0
  0.718750   0.703125 0
  0.656250   0.968750 0
  0.718750   0.718750 0
  0.578125   0.765625 0
  0.562500   0.765625 0
  0.578125   0.750000 0
  0.921875   0.953125 0
  0.984375   0.703125 0
  0.921875   0.937500 0
  0.984375   0.687500 0
  0.562500   0.953125 0
  0.578125   0.578125 0
  0.515625   0.828125 0
  0.562500   0.578125 0
  0.656250   0.937500 0
  0.718750   0.687500 0
  0.640625   0.937500 0
  0.703125   0.687500 0
  0.640625   0.953125 0
  0.703125   0.703125 0
  0.546875   0.765625 0
  0.609375   0.515625 0
  0.531250   0.765625 0
  0.593750   0.515625 0
  0.890625   0.937500 0
  0.953125   0.687500 0
  0.859375   0.750000 0
  0.796875   1.000000 0
  0.984375   0.734375 0
  0.921875   0.984375 0
  0.968750   0.734375 0
  0.906250   0.984375 0
  0.984375   0.718750 0
  0.921875   0.968750 0
  0.593750   0.546875 0
  0.531250   0.796875 0
  0.593750   0.531250 0
  0.531250   0.781250 0
  0.953125   0.515625 0
  0.578125   0.562500 0
  0.515625   0.812500 0
  0.578125   0.546875 0
  0.515625   0.796875 0
  0.593750   0.609375 0
  0.531250   0.859375 0
  0.578125   0.609375 0
  0.515625   0.859375 0
  0.859375   0.703125 0
  0.796875   0.953125 0
  0.828125   0.750000 0
  0.765625   1.000000 0
  0.828125   0.734375 0
  0.765625   0.984375 0
  0.921875   0.796875 0
  0.984375   0.546875 0
  0.562500   0.812500 0
  0.906250   0.796875 0
  0.921875   0.781250 0
  0.812500   0.765625 0
  0.750000   1.000000 0
  0.812500   0.750000 0
  0.859375   0.531250 0
  0.796875   0.781250 0
  0.796875   0.765625 0
  0.781250   0.781250 0
  0.875000   0.578125 0
  0.812500   0.828125 0
  0.937500   0.734375 0
  0.875000   0.984375 0
  0.765625   0.578125 0
  0.703125   0.828125 0
  0.781250   0.562500 0
  0.718750   0.812500 0
  0.750000   0.578125 0
  0.687500   0.828125 0
  0.765625   0.562500 0
  0.703125   0.812500 0
  0.625000   0.953125 0
  0.687500   0.703125 0
  0.609375   0.968750 0
  0.671875   0.718750 0
  0.609375   0.953125 0
  0.671875   0.703125 0
  0.625000   0.875000 0
  0.687500   0.625000 0
  0.609375   0.890625 0
  0.671875   0.640625 0
  0.625000   0.890625 0
  0.687500   0.640625 0
  0.609375   0.906250 0
  0.671875   0.656250 0
  0.937500   0.578125 0
  0.875000   0.828125 0
  0.921875   0.593750 0
  0.859375   0.843750 0
  0.921875   0.578125 0
  0.859375   0.828125 0
  0.937500   0.640625 0
  0.875000   0.890625 0
  0.562500   0.703125 0
  0.546875   0.718750 0
  0.546875   0.703125 0
  0.531250   0.718750 0
  0.906250   0.968750 0
  0.968750   0.718750 0
  0.906250   0.953125 0
  0.968750   0.703125 0
  0.906250   0.937500 0
  0.968750   0.687500 0
  0.890625   0.968750 0
  0.953125   0.718750 0
  0.890625   0.953125 0
  0.953125   0.703125 0
  0.593750   0.765625 0
  0.609375   0.750000 0
  0.593750   0.750000 0
  0.937500   0.953125 0
  0.843750   0.921875 0
  0.906250   0.671875 0
  0.828125   0.937500 0
  0.890625   0.687500 0
  0.546875   0.750000 0
  0.546875   0.734375 0
  0.531250   0.750000 0
  0.953125   0.671875 0
  0.890625   0.921875 0
  0.531250   0.671875 0
  0.515625   0.687500 0
  0.875000   0.921875 0
  0.937500   0.671875 0
  0.515625   0.937500 0
  0.859375   0.937500 0
  0.921875   0.687500 0
  0.859375   0.921875 0
  0.921875   0.671875 0
  0.843750   0.937500 0
  0.906250   0.687500 0
  0.921875   0.703125 0
  0.859375   0.953125 0
  0.937500   0.703125 0
  0.875000   0.953125 0
  0.937500   0.687500 0
  0.875000   0.937500 0
  0.828125   0.656250 0
  0.968750   0.593750 0
  0.968750   0.578125 0
  0.906250   0.812500 0
  0.953125   0.593750 0
  0.953125   0.578125 0
  0.875000   0.843750 0
  0.937500   0.593750 0
  0.953125   0.656250 0
  0.531250   0.921875 0
  0.890625   0.906250 0
  0.953125   0.640625 0
  0.890625   0.890625 0
  0.937500   0.656250 0
  0.875000   0.906250 0
  0.718750   0.593750 0
  0.656250   0.843750 0
  0.734375   0.578125 0
  0.671875   0.828125 0
  0.718750   0.578125 0
  0.656250   0.828125 0
  0.734375   0.562500 0
  0.671875   0.812500 0
  0.578125   0.890625 0
  0.640625   0.640625 0
  0.593750   0.890625 0
  0.656250   0.640625 0
  0.578125   0.906250 0
  0.640625   0.656250 0
  0.578125   0.953125 0
  0.640625   0.703125 0
  0.593750   0.953125 0
  0.656250   0.703125 0
  0.578125   0.968750 0
  1.000000   0.703125 0
  0.640625   0.718750 0
  0.593750   0.968750 0
  0.656250   0.718750 0
  0.734375   0.515625 0
  0.671875   0.765625 0
  0.968750   0.765625 0
  0.984375   0.750000 0
  0.843750   0.750000 0
  0.781250   1.000000 0
  0.859375   0.734375 0
  0.796875   0.984375 0
  0.843750   0.734375 0
  0.781250   0.984375 0
  0.859375   0.718750 0
  0.796875   0.968750 0
  0.843750   0.718750 0
  0.781250   0.968750 0
  0.828125   0.640625 0
  0.765625   0.875000 0
  0.828125   0.625000 0
  0.875000   0.546875 0
  0.812500   0.796875 0
  0.812500   0.781250 0
  0.796875   0.796875 0
  0.875000   0.609375 0
  0.812500   0.859375 0
  0.968750   0.796875 0
  0.546875   0.687500 0
  0.546875   0.671875 0
  0.531250   0.687500 0
  0.984375   0.796875 0
  1.000000   0.796875 0
  0.562500   0.796875 0
  0.578125   0.781250 0
  0.625000   0.531250 0
  0.562500   0.781250 0
  0.578125   0.640625 0
  0.515625   0.890625 0
  0.562500   0.640625 0
  0.578125   0.625000 0
  0.515625   0.875000 0
  0.875000   0.703125 0
  0.812500   0.953125 0
  0.750000   0.609375 0
  0.687500   0.859375 0
  0.765625   0.593750 0
  0.703125   0.843750 0
  0.750000   0.593750 0
  0.687500   0.843750 0
  0.625000   0.984375 0
  0.687500   0.734375 0
  0.625000   0.968750 0
  0.687500   0.718750 0
  0.609375   1.000000 0
  0.671875   0.750000 0
  0.609375   0.984375 0
  0.671875   0.734375 0
  0.625000   0.906250 0
  0.687500   0.656250 0
  0.609375   0.921875 0
  0.671875   0.671875 0
  0.625000   0.921875 0
  0.687500   0.671875 0
  0.609375   0.937500 0
  0.671875   0.687500 0
  0.625000   0.937500 0
  0.687500   0.687500 0
  0.968750   0.656250 0
  0.906250   0.906250 0
  0.984375   0.640625 0
  0.921875   0.890625 0
  0.968750   0.640625 0
  0.906250   0.890625 0
  0.984375   0.625000 0
  0.921875   0.875000 0
  0.968750   0.625000 0
  0.906250   0.875000 0
  0.953125   0.765625 0
  0.906250   1.000000 0
  0.968750   0.750000 0
  0.937500   0.765625 0
  0.953125   0.750000 0
  0.953125   0.796875 0
  0.937500   0.796875 0
  0.953125   0.781250 0
  1.000000   0.531250 0
  0.937500   0.781250 0
  0.984375   1.000000 0
  1.000000   1.000000 0
  1.000000   0.984375 0
  0.890625   0.765625 0
  0.718750   0.515625 0
  0.656250   0.765625 0
  0.890625   0.796875 0
  0.890625   0.781250 0
  0.562500   0.671875 0
  0.921875   0.656250 0
  0.578125   0.656250 0
  0.515625   0.906250 0
  0.562500   0.656250 0
  0.890625   0.750000 0
  0.828125   1.000000 0
  0.875000   0.734375 0
  0.812500   0.984375 0
  0.546875   0.968750 0
  0.625000   0.718750 0
  0.171875   0.656250 0
  0.750000   0.046875 0
  0.062500   0.609375 0
  0.046875   0.609375 0
  0.734375   0.031250 0
  0.046875   0.593750 0
  0.718750   0.125000 0
  0.703125   0.109375 0
  0.687500   0.125000 0
  0.500000   0.937500 0
  0.437500   0.765625 0
  0.359375   0.625000 0
  0.296875   0.875000 0
  0.343750   0.609375 0
  0.281250   0.859375 0
  0.250000   0.515625 0
  0.484375   0.531250 0
  0.468750   0.515625 0
  0.468750   0.656250 0
  0.453125   0.671875 0
  0.031250   0.937500 0
  0.390625   0.921875 0
  0.250000   0.968750 0
  0.765625   0.234375 0
  0.750000   0.093750 0
  0.750000   0.078125 0
  0.000000   0.515625 0
  0.500000   0.765625 0
  0.328125   0.718750 0
  0.343750   0.703125 0
  0.328125   0.687500 0
  0.312500   0.703125 0
  0.343750   0.781250 0
  0.406250   0.531250 0
  0.015625   0.531250 0
  0.062500   0.593750 0
  0.750000   0.015625 0
  0.062500   0.578125 0
  0.046875   0.578125 0
  0.734375   0.000000 0
  0.296875   0.687500 0
  0.484375   0.843750 0
  0.031250   0.593750 0
  0.718750   0.015625 0
  0.031250   0.578125 0
  0.468750   0.828125 0
  0.703125   0.000000 0
  0.750000   0.234375 0
  0.453125   0.750000 0
  0.218750   0.687500 0
  0.421875   1.000000 0
  0.000000   0.218750 0
  0.484375   0.750000 0
  0.468750   0.765625 0
  0.468750   0.875000 0
  0.046875   0.093750 0
  0.296875   0.781250 0
  0.437500   0.984375 0
  0.015625   0.203125 0
  0.500000   0.796875 0
  0.078125   0.015625 0
  0.484375   0.875000 0
  0.484375   1.000000 0
  0.062500   0.218750 0
  0.468750   0.859375 0
  0.484375   0.781250 0
  0.062500   0.000000 0
  0.484375   0.921875 0
  0.062500   0.140625 0
  0.453125   1.000000 0
  0.031250   0.218750 0
  0.312500   0.562500 0
  0.250000   0.812500 0
  0.468750   0.937500 0
  0.046875   0.156250 0
  0.343750   0.593750 0
  0.375000   0.562500 0
  0.312500   0.812500 0
  0.203125   0.671875 0
  1.000000   0.234375 0
  0.375000   0.593750 0
  0.312500   0.796875 0
  0.484375   0.890625 0
  0.062500   0.109375 0
  0.296875   0.796875 0
  0.187500   0.656250 0
  0.984375   0.218750 0
  0.359375   0.546875 0
  0.375000   0.625000 0
  0.359375   0.609375 0
[...]
POINT_DATA 4072
SCALARS scalar_value float 1
LOOKUP_TABLE default
0.0265548
0.0915024
0.0176812
0.00103258
0.0165598
0.000227933
0.025106
0.00119829
0.0222283
0.000277021
7.58216e-05
0.00939327
0.0723478
3.42372e-05
0.00638206
7.42914e-05
-0.000692486
0.00552657
0.210995
0.00405784
8.70077e-08
0.194819
1.4531e-08
-4.58247e-08
0.180047
-0.00233233
8.93983e-08
3.20892e-07
-0.00233818
0.000357004
0.000507004
0.000174174
-0.000275615
0.000185656
0.00396646
0.000167457
0.00310725
0.000360015
0.00250983
0.000232658
0.00172317
0.0100588
0.0121105
0.0144474
2.96241e-08
3.30411e-09
4.72889e-08
1.07013e-08
0.000312356
0.204604
-0.00284869
0.130911
0.00048864
0.00373837
0.000445948
0.00199845
0.000298582
0.000552169
0.00793675
0.225668
0.000786451
0.253451
1.4947e-07
-1.90651e-08
1.1066e-05
0
-1.22811e-08
6.88486e-09
-6.63552e-08
-8.99325e-09
-4.58931e-09
1.65557e-08
0.225462
-0.000612693
0.240276
-0.00018652
1.85331e-07
0.22601
-0.00334581
0.243885
-0.00377108
0.154156
-0.000115123
0.153579
-0.00183528
1.78044e-05
-4.13814e-06
-7.66176e-06
0
-8.96367e-06
-8.19886e-06
3.96839e-07
1.87652e-08
0.00548467
7.75946e-07
3.00177e-07
-4.27329e-05
0
-5.56586e-05
1.13258e-07
2.78765e-05
4.36417e-06
-0.00036801
1.09098e-06
-6.96948e-06
2.70946e-09
7.01273e-08
-0.00619274
-0.000391121
-0.00237801
0.000429936
0.00575637
-0.000540398
-0.00622778
-0.000513069
0.000175193
0.00272128
9.67883e-05
0.00226473
0.000147091
0.00328637
0.00092932
0.031943
0.000435522
0.0197028
0.000711637
0.0206992
0.000340785
0.012214
-3.13341e-07
8.25358e-07
-7.25633e-07
1.92554e-06
-1.06761e-06
2.36916e-06
-4.40975e-08
7.94732e-07
0.0306502
0.0175905
0.020934
0.00531859
-1.63145e-08
-5.93534e-08
-1.94162e-08
-4.87133e-08
-1.49625e-08
-3.5225e-08
4.19226e-08
-4.43912e-08
8.61669e-08
-3.52448e-08
0.00372329
0.00350381
0.00767618
2.17881e-08
1.55704e-06
-1.30168e-06
1.26458e-06
5.53484e-06
0.011527
0.0145009
0.00231348
3.0804e-09
2.29126e-07
0.0100476
0.00130925
6.11051e-07
-6.23252e-08
-0.000265057
7.93741e-07
-2.61834e-07
1.04667e-06
-3.46735e-07
1.32419e-06
-8.75962e-07
-1.66758e-07
5.34669e-07
-4.79316e-08
2.92518e-07
-5.99474e-08
4.46018e-07
2.21409e-06
5.52415e-08
7.21151e-08
6.17321e-07
1.46335e-07
1.63401e-07
6.95289e-07
-9.79996e-08
2.97029e-08
0.000188417
3.13046e-07
5.90522e-08
3.70109e-07
-5.59705e-08
7.53361e-07
0.0350012
0.0013889
0.029381
0.000347817
0.0477371
0.00161489
0.0376852
0.000440769
0.00151754
0.0451413
0.000515329
0.0268996
0.00111111
0.0331799
0.000336072
0.015306
0.000133569
0.00998543
0.000185988
3.5197e-08
0.0119196
7.85394e-05
0.00799148
0.0602736
0.000917695
-6.81518e-08
-1.91906e-08
1.31047e-05
0
1.34144e-05
2.37487e-08
1.59867e-05
-4.04219e-06
1.56906e-05
-7.08058e-07
1.9047e-05
-1.07729e-05
9.36776e-06
-0.000228402
1.79867e-05
-8.15268e-06
-2.32979e-05
-3.21978e-05
4.01256e-05
9.56501e-06
-3.49319e-06
-5.1759e-08
0.0240412
0.024181
0.00836854
-3.17887e-08
2.24575e-08
0.0069083
0.0079419
0.216454
0.00888539
0.100467
-0.000999852
0.0519646
0.126637
-0.00138536
1.05458e-05
-1.44139e-06
0.00200619
-0.000452944
-0.0060397
-0.000285119
0.00361626
-0.000503887
4.38935e-05
0.000586472
0.000101109
0.00141078
0
0.0012126
4.83231e-05
0.00163107
0.000533309
0.0130632
0.000264886
0.00765719
0.000387603
0.00802924
0.000201902
0.00495029
0.000269541
0.00478971
-4.21698e-09
3.47998e-08
2.37302e-08
1.78416e-07
1.11456e-08
9.47067e-08
2.41517e-08
2.13392e-07
2.57214e-08
1.83899e-07
-2.28196e-08
0
-6.93288e-08
8.64032e-08
-3.89814e-08
4.97946e-08
2.43827e-07
5.20327e-09
-1.82453e-08
1.48529e-07
0
0
2.22822e-09
3.41318e-06
0.10374
0.0037217
1.83634e-06
2.65853e-06
0.0370943
-4.16716e-07
0.0757752
-0.000686074
0.0422515
4.07968e-06
0
8.02538e-06
2.23377e-07
0.000145213
0.00771722
-0.000554379
-0.00404488
2.87436e-06
-2.001e-06
0.000886813
-2.11981e-06
0.0235112
0.019656
0.00253987
-0.000263535
0.0120941
0.0366186
6.83658e-05
0.0373732
4.34092e-05
0.0131852
0.167806
0.187345
0.0134701
0.0112258
-1.80258e-08
0.000261789
4.31872e-05
-0.00445784
-0.00506182
-0.00467247
2.94986e-08
-0.00304776
0.000460546
0.00234592
0.00298732
0.00190678
0.000141524
0.32955
-1.29527e-07
3.33288e-06
-0.00331573
3.86948e-06
-2.20918e-06
-0.000135449
0.0011914
-0.000299903
6.95571e-07
0.00641465
7.18662e-07
-0.000386755
0.00595552
-0.0105123
0.0068631
-0.00126824
0
7.08911e-08
-0.000110039
0.000731848
-0.000704852
-1.09991e-07
-0.000166912
0.000104486
-5.39613e-08
-0.00250079
-5.52786e-08
-0.000251566
0
-5.13624e-07
-0.000697019
-0.000129405
3.53892e-09
-0.000179915
3.31134e-07
0
1.40566e-07
0.0594018
0.00106889
-0.000455331
-4.3062e-07
0.0495543
0.140683
0.000645316
-0.00267432
3.80332e-10
0.0900409
0.000655045
-0.000222318
-1.53628e-07
-7.94346e-05
-0.00208668
-8.88813e-10
0.136158
0.0557542
0.0486811
0.0827624
2.3233e-05
-0.000120093
-6.3697e-07
-1.72195e-05
-0.000618573
-3.70248e-07
-0.000501656
0.0831644
6.67039e-07
0.139896
-0.00119976
-0.000707781
6.97535e-09
0.000599175
0.0548351
0.00154556
-4.20528e-08
2.03274e-09
-0.00149092
0.000658524
0.215078
0.0025577
0.000219198
2.11583e-07
0.145466
0.00156301
0.000320756
-4.96494e-08
3.06267e-07
0.0109616
2.74832e-08
-0.000596031
4.93568e-07
0.0145596
0.0104736
-0.00138569
-0.000818004
7.93958e-05
9.00002e-08
0.0146603
0.00520516
-0.00012958
0.299482
-0.00198792
-0.00101064
9.98787e-09
-0.000276178
-0.00269202
-3.68293e-09
0.206498
0.0188864
-0.000660731
0.00407379
0.0138981
0.00304422
-8.87433e-07
7.1852e-07
-2.26235e-06
-0.00177663
0.00533405
0.00424285
-0.00251728
1.14597e-05
3.53775e-07
0.00363955
0.000231221
2.05013e-07
-8.08587e-08
0.000291036
3.39722e-07
0.000174452
7.00799e-07
-0.000116652
-1.40215e-07
6.121e-05
0.00556546
4.25882e-08
0.00253955
0.000695791
0
0.000219819
0.0261738
-8.4828e-06
0
0.000492945
-4.27992e-08
0.000953418
-9.87442e-09
-1.0942e-09
0.00135202
0
0
-0.000239074
-5.07233e-07
-5.60145e-05
6.80348e-08
0.0117091
-3.51634e-05
4.96527e-08
0.00110219
0.112855
1.76763e-05
-8.65707e-10
0.0498786
0.00385431
0.00679301
1.2949e-09
0.00401518
-3.37805e-08
0.02938
0.000230399
-1.20694e-08
0.0340053
0.0275241
-0.00112096
0.00159529
1.57915e-05
-6.67855e-07
-0.00620161
0.00021967
0.000458205
0.0372164
-0.000785592
1.04965e-06
-9.22584e-10
-2.89131e-10
1.43975e-05
1.70329e-05
0.337289
0.000705954
0
0.0192827
0.105369
0.000433272
0.19831
0.22087
-0.000362778
0.279612
0.00483455
0.00725274
0.164584
-0.000992506
0.111812
0.150091
0.137433
2.08949e-07
0.00598183
0.22078
0.17958
-1.29439e-08
0.00334374
0.0266662
0.0194327
-0.005835
0.00341088
0.257388
-1.45312e-08
0.00689264
0.314922
2.15854e-08
-7.4412e-05
-2.27249e-06
0.0184317
-7.2444e-08
0.0263157
0.033248
-3.37832e-05
-1.85792e-06
0.00187072
-9.08075e-06
2.1534e-06
-0.00435699
0.0249832
0.0663166
0.0933822
0.00455595
4.2582e-08
0.00193242
0.00454241
5.15205e-06
0.0741372
-1.51e-08
0.0874152
0.0503841
2.59863e-09
9.20272e-05
3.23383e-06
-3.02723e-05
0.00666616
0.011174
0.0204806
0.00102955
0.150247
0.145173
2.47117e-08
0.000379771
0.101135
0.000754102
0.00751224
-0.00103743
0.182605
1.8401e-07
0.000579603
-6.77914e-08
0.000489783
0.0015083
5.19001e-05
0.154987
2.23141e-07
0.00029711
-0.00218012
0.0237109
0.0156108
0.00911159
0.34092
0.0736892
-0.000616943
0.0524538
0.000208941
0.0245695
0.0543503
0.000996257
2.80304e-08
0.000157827
0.0939476
-0.00012582
0.000611837
0.000794294
1.80054e-08
-0.000858506
2.6311e-08
0.00053436
4.78211e-09
-0.000420035
0.0469443
0.0727873
0.0098984
2.57672e-07
-3.63792e-05
0.0141638
0.000964231
0.000323905
-5.94587e-08
-0.000825576
0.0878965
0.00282918
0.0963364
0.00250769
4.65919e-08
0.0526486
0.0318669
1.21932e-07
0.00663399
3.46805e-05
1.45395e-05
-0.000451832
0.0533609
1.28567e-08
0.0388008
0
0.0265727
0.0304763
0.0208856
0.0100567
0.0669913
1.70764e-08
-2.50041e-07
4.08826e-06
0.0249271
-2.64131e-08
0.000166927
0.0515822
6.76269e-08
-0.00211043
8.82613e-09
0.000416156
-0.00912234
-5.83399e-05
-0.00153117
-0.00576609
0
0.247241
-0.00101165
-0.000522394
-0.00178487
-0.000762076
0.171826
-0.000784372
-0.000430669
-6.87174e-05
0.00931527
2.00248e-05
0.000283934
0.246061
2.20889e-05
0.00137501
-0.00555944
-1.09264e-05
-0.00241422
7.41287e-05
9.33611e-09
-0.00259926
-0.00518988
-4.17115e-05
0.249182
0.248937
-1.27254e-06
-9.90749e-07
0.00256638
-1.48646e-06
0.166987
1.24767e-06
-0.000320018
0.0263773
0.0111622
-0.000159327
0.0184196
0.000166709
9.01145e-05
4.67868e-07
0.00906685
-1.83431e-07
-1.46422e-07
-0.00162098
-1.51902e-06
-2.7761e-07
0.0139476
0.00734185
-0.00021937
0.0119866
0.000345224
0.00589247
0.0390263
9.46056e-07
0.257484
0.0513836
0.253502
0
0.0416906
0.246775
0.0248139
0.029475
1.74705e-06
0.00115538
-3.91923e-08
0.256437
1.79004e-07
-1.48691e-05
6.09169e-08
-3.90662e-05
3.44008e-06
-7.52899e-06
0.000806077
-3.97799e-08
0.000663929
6.03873e-08
0.000654966
0.293553
-1.01605e-06
-1.48539e-06
-5.88369e-07
0.00315804
-1.10097e-06
0.133135
9.84289e-07
-0.000670554
-1.28464e-06
1.11424e-06
-0.000531308
5.53249e-07
-5.07571e-08
6.03609e-07
1.30134e-08
-0.00118818
3.93118e-08
1.05523e-06
-7.86413e-07
0.260476
0.271768
6.73287e-08
0.000135282
2.93377e-05
0.000201014
-6.64394e-05
0.00257273
0.090351
0.00327997
-0.00219127
-8.25813e-08
0.101409
0.00127657
0.017857
0.261859
0.00526798
0.00770829
1.39409e-06
0.00131211
0.000139175
0.238703
0.00186485
0.00194051
6.79251e-08
0.243818
-0.00146416
0.000674767
0.229871
0.0218228
-0.0047991
-8.1528e-06
0.217064
3.60865e-05
-0.00498785
-8.95541e-06
8.94973e-05
-0.00294857
0.0274638
-0.00298055
-0.000333006
-0.00399608
-0.00254279
-0.000150016
-0.0024031
2.08857e-07
-6.45063e-06
-0.00258357
4.9732e-05
-0.00337594
0.00423682
-0.0047553
-8.81441e-05
-0.000577747
-0.00196258
8.16999e-08
0.000567057
0.0161914
1.62749e-06
0.186241
0.0935946
0.134987
0.231607
0.242086
2.32e-07
-2.00192e-07
0.265552
0.00969081
0.265011
0.0113301
6.93549e-07
0.000327891
0.243907
0.00771388
-0.00345209
-7.16746e-06
0.239097
-0.00440299
-7.55569e-06
0.00134704
0.201791
0.0480583
-0.00510062
-9.91578e-06
0.185343
6.36489e-05
-2.84876e-05
1.51485e-09
-0.00517034
1.19027e-05
-8.21006e-06
0.00205078
1.11307e-05
-6.92378e-06
0.00268902
3.22418e-07
1.2796e-05
1.47249e-07
-0.000180183
4.33458e-07
5.94665e-09
-0.00342247
-1.93282e-06
0.00142486
-0.00186521
-0.00221291
-0.000245134
-0.000310118
4.26019e-09
-0.00153159
0.0644073
-0.00186965
-0.00145695
-0.00141894
0.000190502
-0.0034203
1.60064e-07
-1.48625e-06
2.20653e-07
-1.66245e-05
-0.00340191
0.293701
0.107296
1.38183e-06
-1.91708e-08
-0.000613341
0.186689
0.0133256
0.000320139
0.112886
0.00463579
0.000291824
-0.00155459
0.109015
-0.00126842
-0.000551728
-4.81944e-05
4.45221e-05
-4.80501e-05
0.00436221
6.87197e-05
7.524e-06
0
-5.56522e-05
0.200399
-0.000143317
0.00541065
0
-6.34984e-08
0.251789
-0.00308286
0.0633513
0.220692
0.00408575
2.41076e-06
-3.19806e-07
0.00115649
-1.68835e-07
-5.03701e-08
0.00030267
-1.13818e-07
-0.00190293
1.02589e-07
-3.13133e-08
-0.000278434
-1.50293e-07
2.2266e-05
2.13204e-09
0.0761898
0.009681
-0.00014637
-2.34415e-09
0.0120988
0.000559677
1.15761e-06
0.0602257
0.00792518
9.70163e-07
-4.41356e-09
0.00360574
0.10649
-0.00220302
-0.00189861
-0.00232266
0.00769406
4.50493e-06
0.111544
3.86129e-06
-4.17701e-06
9.55318e-05
-0.00233352
0
-2.09245e-05
-0.0103555
-2.27657e-06
-4.43229e-05
5.16792e-06
-0.000335266
-3.5036e-06
-5.59094e-06
0.0375171
-7.175e-06
0.00263922
-4.47462e-08
0.00212442
0.221584
0.000264516
0.0196608
0.00331324
4.45564e-08
0.223318
0.0715259
0.00858885
1.8066e-06
0.118627
0.0983422
0.102916
0
6.39901e-07
0.000529097
0.000545176
0.00354226
0.000513904
0.000115728
0.00095288
0.000222318
0.00122299
0.303301
0.0855065
0
0.08797
0.0733447
1.35154e-07
-1.75295e-07
-1.11137e-07
4.88968e-07
8.5348e-07
-9.50875e-07
-0.00456627
-5.60432e-08
7.03422e-05
-1.36254e-06
-1.50595e-07
4.12359e-07
0.100728
7.24527e-07
-8.46734e-07
4.40234e-09
0.000357597
0.000533853
0.00841025
-3.567e-06
2.76616e-06
0.0109928
0.261751
0.00901856
0.000721133
0.174476
0.00272293
2.32366e-06
2.4818e-06
0.00198464
0.00051289
-0.00207282
0.111923
0.124383
-2.07765e-06
0.23704
0.161524
0.130935
0.142494
2.07521e-05
6.71824e-08
0.000857571
-0.0024666
1.71111e-05
1.87724e-05
0.235619
0.00385009
0.0407993
0.0248378
-0.00926401
2.5619e-05
-2.70576e-05
0.0346148
0.107108
0.0185139
-1.146e-06
0.00211526
-0.000374471
-2.65819e-05
0.0336647
0.0145011
0.070148
0.054627
2.46119e-05
6.88934e-05
0
0.131489
0.0139681
0.114734
0.00015483
1.69041e-07
-0.00191452
3.72888e-06
0.178811
0.0607166
0.0383399
1.05691e-07
2.70721e-07
-0.000199086
-0.00713859
4.31383e-06
0.00111136
-4.07444e-05
0.0589951
-9.29615e-05
-0.000179562
0.0454719
-1.83527e-05
5.07163e-05
0.140015
0.081855
0.00209841
-6.1762e-07
0.173794
0.152183
-2.21136e-07
-0.000673663
0.00845431
-4.84588e-06
0.00528563
-2.27936e-05
2.15035e-06
0.0424506
-0.00017719
-0.000230665
0.0762944
-1.77431e-05
0.0140492
-0.00136851
4.75067e-07
0.000140772
0.00560371
0.0346201
0.0001174
0.19614
1.98616e-06
-0.000239066
0.00014327
-7.92406e-07
0.00119566
-0.000331963
0.00013707
0.0763802
0.163251
0.0074931
0.0245266
0.000179592
0.196788
-0.000267212
0.00039698
0.0440478
0.000427367
0.000554218
-0.000172488
0.000127922
-0.000693845
-1.66275e-06
0.191976
0.0164903
-1.87502e-05
-2.75805e-06
-2.97404e-06
-8.09179e-08
3.28282e-07
1.09412e-06
8.26927e-08
2.0891e-07
0.000392441
-4.27209e-06
2.74928e-06
6.48386e-08
0.000286806
0.28291
0.257106
-4.9292e-08
-3.7959e-08
0.000876107
0.000474433
0.0146917
3.66455e-07
0.201922
2.77999e-06
0
0.0787781
0.107383
0
9.21247e-05
0.0276706
0.00514439
0.271695
0.13347
0.000111757
0.00142727
-1.72169e-05
0.000132138
0.0137942
-0.000149172
0.0390283
1.40928e-06
0.280437
0.230755
0.00172602
0.115367
0.0736568
0.000375342
-6.935e-06
0.000374287
0.182252
0.0173298
0.0104346
0.189966
0.0467272
0.0771216
0.270195
0.0358796
-0.000216893
-0.0033611
0.0913864
0
0.28254
0.250424
0.0206669
-0.000227193
-0.000461132
-0.00572871
-1.99645e-06
0.0120156
-0.00966253
0.014951
-0.000643519
-0.00907146
-0.00724507
0.0184617
-0.000472887
-1.57052e-07
0.0755943
1.10207e-07
0.00837525
-3.18843e-08
1.00503e-07
-4.59369e-08
0.000347812
0.0192861
0.203144
8.94167e-08
0.00025033
0.0226947
1.42409e-06
0.218227
-6.02115e-08
0.257346
0.141326
0.0788563
0.191328
0.000644129
-3.72292e-06
0.234833
2.26419e-06
3.82795e-08
0.144952
0.0668476
-4.68197e-05
0.0106017
0.00753739
4.64168e-07
0.140067
0.000952531
0.010553
0.168832
0.012896
3.92203e-07
0.185694
0.181122
0.0122533
1.07363e-07
0.200749
0.00150125
5.16287e-08
0.0153178
0.219679
0.0186765
1.15221e-07
0.113689
4.56062e-05
0.0026306
0.00610045
-0.00168182
0.0001562
-0.00130858
0.01335
-0.00318169
-9.94535e-05
7.88526e-05
-0.00641477
7.7694e-05
-0.00372577
0.0125558
-0.00384384
-0.000206686
-0.00429918
-0.00014483
-0.00375135
7.45904e-05
-0.00566119
0.0270459
-0.00278792
-0.000115792
9.60487e-09
-0.0026081
0
-1.13344e-08
0.00113661
-5.23305e-07
0.001121
1.3883e-06
0.125702
0.00113053
0.00587196
-0.000482513
-0.00122236
0.035152
0.260624
2.98422e-06
6.56187e-07
6.78604e-06
0.000613363
3.77447e-06
-2.13052e-05
5.38483e-08
0.29105
-3.34054e-05
-1.24595e-05
0.000787756
7.27568e-06
0.000418177
4.9759e-06
6.38997e-07
1.7761e-07
7.88138e-06
-1.19786e-05
0.000506952
0.312223
-2.0161e-07
0.000310107
-1.59434e-07
-0.00106972
-0.00250022
7.11152e-07
-7.14799e-07
0.00580611
0.000232862
-0.00295326
-0.000108687
-0.00614464
0.0638406
-0.00243414
-0.000202682
4.76106e-05
-0.00285455
0.127587
0.0191432
2.13599e-05
0.00016266
-0.00374435
0.0352258
-0.00222337
0.0174649
0.0861288
-5.47374e-06
-9.74733e-06
-1.85464e-07
2.05917e-06
-2.77798e-05
0.155571
-1.88208e-06
0.00175733
-3.21783e-07
0.013879
2.08884e-05
-0.006179
-2.43234e-06
-6.25988e-06
0.00338167
0.0209834
0.0961606
0.0398949
0.0399507
-2.6571e-05
0.000158355
-0.000996257
0.302312
3.58716e-08
0.125098
-0.00562887
0.0300884
-0.000259076
0.00701808
0
1.01051e-06
0.0579781
-2.24389e-05
0
3.63997e-06
6.4811e-06
0.000408993
2.07941e-05
0.00185203
0.214599
0.013876
-0.00043402
0.00452543
3.75978e-06
0.17355
0.0333265
1.6109e-06
5.90347e-06
-0.00237645
7.57795e-06
0.00026314
0.238939
0.0714462
0.000994832
0.000986475
1.54871e-06
0.00399225
3.17626e-05
9.97092e-05
6.42813e-06
-0.00451403
-2.48045e-06
0.000174811
0.0447644
-1.03215e-06
-0.00436662
0.0265034
-7.43369e-05
1.20773e-06
1.08947e-07
0.000211447
-1.13382e-05
5.94151e-05
-2.27646e-05
6.83319e-05
7.89861e-05
0.228768
0.000832435
0.00700368
0.000479834
1.93486e-08
0.0010819
4.01148e-05
0.000283408
-2.87795e-05
0.00334373
0.261328
-4.16174e-05
0.00426983
0.000232628
-0.000509192
0.0985703
1.09497e-07
0.000225189
-1.03389e-07
-0.00028244
0.151478
-2.05946e-07
1.83988e-08
-7.93802e-05
6.56968e-07
6.06367e-07
-4.33389e-06
-0.00265686
-0.0049516
-1.22703e-05
5.00493e-08
-6.84166e-05
0.00136979
2.47691e-05
-7.38042e-06
-1.71776e-07
-0.00281165
-3.26163e-08
0.0804073
0.00171122
9.39414e-06
-1.9425e-06
-9.95548e-07
3.62628e-05
5.34846e-06
-1.91518e-05
4.87654e-07
-7.81356e-06
0
0.0231182
0.173703
-0.00352298
-8.4649e-05
-0.00648432
-0.00651226
0.0250349
-0.000219821
5.92879e-06
0.00112981
0.000442813
0.000110594
0.0712322
0.00709954
0.000178623
0.000521983
-0.00426721
-5.65695e-06
0.0127335
4.00208e-05
-0.00610457
0.0414854
2.17162e-06
0.00139315
-0.000220195
-3.60771e-05
0.0492139
0.0353774
0.0961427
0.0689343
3.84654e-05
0.00613274
0.168469
1.43636e-06
-1.53973e-06
9.10903e-05
-3.97885e-08
0.0104586
0.131857
-1.27394e-05
0.00120166
0.285986
-6.4268e-07
2.45807e-06
-2.01383e-08
0.000192292
-1.69135e-06
-6.10075e-09
-0.00308933
-4.31254e-06
-1.03499e-06
1.4151e-06
6.58962e-07
4.13662e-07
-9.88106e-07
-1.99518e-06
-1.45266e-05
0.316974
0.00421043
0.111766
0.120149
-9.63339e-06
0.000664927
0.0017025
0.263549
0.00138012
0.000611829
-6.41247e-05
0.000459863
-1.73461e-06
5.09939e-06
-1.51158e-07
0.022636
-7.39206e-05
-0.0047338
0.0046765
-0.00279531
0.0118932
2.89943e-06
-2.1712e-06
0.000681792
0.0226425
0
0.196253
0.000768755
0.151739
0.0385808
0.00324867
6.43091e-05
-3.64951e-07
0.0031104
-4.96532e-08
0.000600588
4.51501e-09
0.0458879
0.00612878
2.34103e-06
1.23421e-05
-1.99316e-06
6.89774e-06
7.83256e-05
0.246843
-1.76932e-05
0
0.154755
0.00027236
0.00284403
7.56655e-05
3.37723e-06
-6.34405e-05
-4.52167e-05
6.06797e-07
-0.00462193
0.0137667
-0.000261553
0.207581
2.67279e-06
-2.04586e-06
-5.3676e-05
-0.00237911
0.172528
0.0226556
-0.00030749
0.000245534
0.000575949
6.07919e-05
0.00126048
6.09427e-07
4.431e-07
0.000126427
-7.63324e-06
5.6305e-08
-0.010029
-0.00520724
0.0084884
0.000132911
-2.08596e-06
0.00606008
-2.96989e-05
0.291639
0.260693
3.32267e-05
0.032034
0.0033387
0.0498222
-0.000143349
0.00801639
-9.12786e-05
0.223265
0.000108823
-0.00191361
2.62717e-08
0.0006205
-0.00122134
-0.00952918
0.00957555
-0.00103642
-0.000153266
0.00118864
-0.000242887
-4.50375e-06
-8.25445e-07
0.0111227
-0.0044978
0.000383408
0.0075688
-0.00881482
-0.0063528
0.008939
-0.000309079
-0.00470298
9.55919e-09
-0.00351218
5.7283e-06
0.0001865
-2.1578e-06
-0.000866465
9.26027e-07
3.47496e-06
6.63993e-07
-1.88374e-06
1.7388e-06
4.31856e-05
0.23
0.000860355
0.000326541
1.62539e-06
-2.07657e-07
7.49685e-08
-5.27151e-06
7.72406e-08
0.240325
0.0329146
0.0287715
0.172829
0.0377634
0.099862
0.00116925
0.0254921
-2.98769e-05
0.0301312
0.0791056
-6.19278e-05
6.25219e-07
6.00549e-06
0
0.0480986
-0.000544959
-3.96384e-07
0.213684
-1.94277e-05
0.0366756
0.193354
0
2.91507e-05
-1.63711e-07
0.000162563
3.83538e-06
-8.51164e-07
-1.69996e-05
-7.3618e-07
0.0352065
0.000731346
0.0915526
1.44387e-06
-7.70843e-05
3.15404e-07
-0.003413
0.0307164
-6.1237e-05
7.73533e-06
-3.37859e-06
0.173232
0.0945461
2.05151e-06
4.074e-06
-0.000977902
5.77648e-08
0.000885238
5.3039e-08
-4.42126e-05
-0.00159885
9.63188e-05
0.170524
-0.00193256
-0.000641731
0.000807711
0.000462738
0
0.11223
-0.000388198
0.000548703
0.216923
-0.00926797
3.34829e-07
-3.1497e-05
0.230821
2.32598e-05
0.0260844
0.0179099
0.110593
-6.15052e-06
0.0738223
1.45806e-05
0.000386827
-6.42802e-05
0.189473
-5.52272e-06
0.00425998
7.95995e-08
0.0617359
0.0522466
0.246336
0.240391
0.24766
-6.42819e-05
-0.00385995
0.116728
0.0288677
0.137792
0.0977236
0.120956
0.0437008
-5.70309e-05
-2.61986e-05
3.05392e-05