# vtk DataFile Version 2.0
Unstructured Grid by M++
ASCII
DATASET UNSTRUCTURED_GRID
POINTS 289 float
  0.562500   1.000000 0
  0.562500   0.937500 0
  0.625000   0.625000 0
  0.562500   0.875000 0
  0.625000   1.000000 0
  0.562500   0.625000 0
  0.625000   0.937500 0
  0.562500   0.562500 0
  0.562500   0.812500 0
  0.562500   0.750000 0
  0.562500   0.687500 0
  0.625000   0.687500 0
  0.625000   0.750000 0
  0.625000   0.875000 0
  0.625000   0.812500 0
  0.687500   0.125000 0
  0.875000   0.062500 0
  0.750000   0.437500 0
  0.687500   0.062500 0
  0.875000   0.000000 0
  0.937500   0.375000 0
  0.687500   0.000000 0
  0.937500   0.312500 0
  0.625000   0.125000 0
  0.625000   0.062500 0
  0.812500   0.000000 0
  0.875000   0.375000 0
  0.687500   0.375000 0
  0.625000   0.000000 0
  0.875000   0.312500 0
  0.937500   0.000000 0
  1.000000   0.187500 0
  0.750000   0.187500 0
  1.000000   0.687500 0
  0.312500   0.187500 0
  0.750000   0.687500 0
  0.750000   0.625000 0
  0.062500   0.187500 0
  0.812500   0.687500 0
  0.812500   0.750000 0
  0.125000   0.250000 0
  0.375000   0.250000 0
  0.500000   0.187500 0
  0.500000   0.125000 0
  0.687500   0.625000 0
  0.687500   0.562500 0
  0.000000   0.125000 0
  0.937500   0.625000 0
  0.250000   0.125000 0
  0.375000   0.437500 0
  0.812500   0.875000 0
  0.125000   0.375000 0
  0.125000   0.437500 0
  0.625000   0.437500 0
  0.750000   0.500000 0
  0.062500   0.000000 0
  0.062500   0.062500 0
  0.562500   0.062500 0
  0.437500   0.500000 0
  0.375000   0.125000 0
  0.875000   0.187500 0
  0.875000   0.125000 0
  0.500000   0.000000 0
  0.687500   0.437500 0
  0.000000   0.000000 0
  0.937500   0.437500 0
  0.250000   0.000000 0
  0.750000   0.062500 0
  0.750000   0.000000 0
  0.750000   0.750000 0
  0.062500   0.250000 0
  0.687500   0.687500 0
  0.000000   0.187500 0
  0.875000   0.875000 0
  0.187500   0.375000 0
  0.937500   0.937500 0
  0.250000   0.437500 0
  0.687500   0.937500 0
  0.687500   0.875000 0
  0.000000   0.437500 0
  0.875000   0.562500 0
  0.187500   0.062500 0
  0.750000   1.000000 0
  0.750000   0.937500 0
  0.062500   0.500000 0
  1.000000   1.000000 0
  0.312500   0.500000 0
  0.500000   0.812500 0
  0.437500   0.375000 0
  0.437500   0.437500 0
  0.375000   0.000000 0
  0.375000   0.062500 0
  0.437500   0.750000 0
  0.625000   0.375000 0
  0.562500   0.000000 0
  0.875000   0.937500 0
  0.187500   0.500000 0
  0.187500   0.437500 0
  0.812500   0.562500 0
  0.125000   0.125000 0
  0.125000   0.062500 0
  0.687500   1.000000 0
  0.000000   0.500000 0
  0.375000   0.375000 0
  0.375000   0.312500 0
  0.812500   0.812500 0
  0.125000   0.312500 0
  0.937500   0.750000 0
  0.250000   0.312500 0
  0.500000   0.312500 0
  0.687500   0.750000 0
  0.000000   0.250000 0
  0.000000   0.312500 0
  0.750000   0.375000 0
  0.750000   0.312500 0
  1.000000   0.812500 0
  0.312500   0.375000 0
  0.812500   0.437500 0
  0.812500   0.375000 0
  0.562500   0.375000 0
  0.437500   0.250000 0
  0.875000   0.687500 0
  0.187500   0.250000 0
  0.375000   1.000000 0
  0.500000   0.562500 0
  0.937500   1.000000 0
  0.250000   0.500000 0
  0.250000   0.562500 0
  0.937500   0.687500 0
  0.250000   0.187500 0
  0.250000   0.250000 0
  0.500000   0.250000 0
  0.750000   0.250000 0
  0.437500   0.187500 0
  0.687500   0.187500 0
  1.000000   0.000000 0
  0.750000   0.812500 0
  0.062500   0.375000 0
  0.062500   0.312500 0
  0.875000   0.625000 0
  0.187500   0.187500 0
  0.187500   0.125000 0
  0.437500   0.062500 0
  0.437500   0.125000 0
  0.937500   0.125000 0
  0.500000   0.437500 0
  0.500000   0.500000 0
  0.312500   0.062500 0
  1.000000   0.500000 0
  1.000000   0.750000 0
  0.312500   0.250000 0
  0.312500   0.312500 0
  0.812500   0.312500 0
  0.562500   0.312500 0
  0.375000   0.187500 0
  0.812500   0.625000 0
  0.125000   0.187500 0
  0.500000   0.062500 0
  0.937500   0.562500 0
  0.937500   0.500000 0
  0.250000   0.062500 0
  0.687500   0.500000 0
  0.000000   0.062500 0
  0.375000   0.500000 0
  0.812500   0.937500 0
  0.125000   0.500000 0
  0.625000   0.562500 0
  0.625000   0.500000 0
  1.000000   0.562500 0
  1.000000   0.625000 0
  0.312500   0.125000 0
  0.750000   0.562500 0
  0.062500   0.125000 0
  0.562500   0.125000 0
  0.687500   0.812500 0
  0.000000   0.375000 0
  0.500000   0.375000 0
  0.937500   0.812500 0
  0.937500   0.875000 0
  0.250000   0.375000 0
  0.875000   0.750000 0
  0.875000   0.812500 0
  0.187500   0.312500 0
  0.437500   0.312500 0
  1.000000   0.875000 0
  1.000000   0.937500 0
  0.312500   0.437500 0
  0.750000   0.875000 0
  0.062500   0.437500 0
  0.562500   0.500000 0
  0.562500   0.437500 0
  0.437500   0.000000 0
  0.500000   0.875000 0
  0.375000   0.687500 0
  0.375000   0.625000 0
  0.125000   0.625000 0
  0.000000   0.750000 0
  0.250000   0.750000 0
  0.187500   0.687500 0
  0.500000   0.750000 0
  0.500000   0.687500 0
  0.250000   0.687500 0
  0.000000   0.687500 0
  0.312500   0.750000 0
  0.062500   0.750000 0
  0.125000   0.812500 0
  0.375000   0.812500 0
  0.375000   0.750000 0
  0.125000   0.687500 0
  0.125000   0.750000 0
  0.437500   0.812500 0
  0.000000   0.812500 0
  0.250000   0.875000 0
  0.250000   0.812500 0
  0.187500   0.812500 0
  0.187500   0.750000 0
  0.937500   0.187500 0
  0.937500   0.250000 0
  0.500000   0.937500 0
  0.000000   0.875000 0
  0.000000   0.937500 0
  0.250000   0.937500 0
  0.437500   0.562500 0
  0.875000   1.000000 0
  0.187500   0.562500 0
  0.312500   1.000000 0
  0.062500   0.937500 0
  0.062500   1.000000 0
  0.250000   0.625000 0
  0.500000   0.625000 0
  0.000000   0.562500 0
  0.000000   0.625000 0
  0.312500   0.687500 0
  0.312500   0.937500 0
  0.312500   0.875000 0
  0.062500   0.875000 0
  0.062500   0.562500 0
  0.312500   0.625000 0
  0.312500   0.562500 0
  0.125000   0.937500 0
  0.062500   0.812500 0
  0.312500   0.812500 0
  0.062500   0.687500 0
  0.062500   0.625000 0
  0.125000   1.000000 0
  1.000000   0.250000 0
  1.000000   0.312500 0
  0.125000   0.875000 0
  0.375000   0.937500 0
  0.375000   0.875000 0
  0.500000   1.000000 0
  0.000000   1.000000 0
  0.250000   1.000000 0
  0.437500   0.687500 0
  0.437500   0.625000 0
  0.187500   0.625000 0
  0.187500   0.875000 0
  0.437500   0.875000 0
  0.812500   1.000000 0
  0.125000   0.562500 0
  0.375000   0.562500 0
  0.187500   0.937500 0
  0.437500   1.000000 0
  0.437500   0.937500 0
  0.187500   1.000000 0
  0.812500   0.250000 0
  0.562500   0.187500 0
  0.562500   0.250000 0
  0.625000   0.312500 0
  0.312500   0.000000 0
  1.000000   0.437500 0
  0.937500   0.062500 0
  0.125000   0.000000 0
  0.812500   0.500000 0
  0.750000   0.125000 0
  1.000000   0.125000 0
  0.875000   0.250000 0
  0.625000   0.187500 0
  0.625000   0.250000 0
  0.687500   0.250000 0
  0.687500   0.312500 0
  1.000000   0.062500 0
  0.875000   0.437500 0
  0.187500   0.000000 0
  0.875000   0.500000 0
  0.812500   0.062500 0
  0.812500   0.125000 0
  0.812500   0.187500 0
  1.000000   0.375000 0
CELLS 478 1912
3 162 55 56
3 42 131 120
3 51 52 188
3 140 156 141
3 122 140 129
3 108 150 151
3 147 90 91
3 89 145 58
3 116 151 104
3 91 142 59
3 111 70 112
3 55 272 56
3 111 37 70
3 145 146 58
3 116 104 103
3 142 143 59
3 112 70 138
3 56 272 100
3 97 76 96
3 129 34 130
3 52 74 97
3 140 48 129
3 176 145 89
3 137 138 106
3 100 81 99
3 151 41 104
3 91 191 142
3 182 74 51
3 141 160 48
3 106 122 182
3 81 66 160
3 175 137 79
3 48 170 129
3 74 179 97
3 46 56 172
3 160 269 147
3 62 57 157
3 76 116 186
3 59 154 34
3 186 86 126
3 154 41 150
3 52 165 84
3 40 140 122
3 104 183 103
3 72 172 37
3 170 91 59
3 179 151 116
3 172 56 100
3 112 138 175
3 66 269 160
3 182 108 74
3 160 147 48
3 122 129 130
3 131 109 183
3 109 176 88
3 59 143 154
3 116 103 186
3 79 188 102
3 70 37 156
3 70 40 138
3 272 283 100
3 154 133 41
3 186 49 86
3 133 42 120
3 191 62 142
3 41 120 104
3 143 43 133
3 103 88 49
3 172 100 99
3 175 138 137
3 269 90 147
3 130 150 108
3 64 55 162
3 156 99 141
3 137 51 188
3 154 143 133
3 103 49 186
3 170 147 91
3 108 151 179
3 170 59 34
3 179 116 76
3 120 131 183
3 62 157 142
3 104 120 183
3 162 56 46
3 46 172 72
3 40 156 140
3 188 52 84
3 79 137 188
3 133 120 41
3 49 163 86
3 40 122 106
3 283 66 81
3 48 147 170
3 108 179 74
3 129 170 34
3 179 76 97
3 183 109 88
3 76 186 126
3 34 154 150
3 70 156 40
3 188 84 102
3 72 37 111
3 106 182 51
3 141 81 160
3 137 106 51
3 99 81 141
3 51 74 52
3 140 141 48
3 34 150 130
3 76 126 96
3 88 176 89
3 100 283 81
3 138 40 106
3 183 88 103
3 90 191 91
3 150 41 151
3 49 88 89
3 43 42 133
3 263 218 250
3 254 229 200
3 263 257 218
3 257 210 192
3 249 257 263
3 194 254 253
3 254 260 222
3 84 165 259
3 241 249 234
3 102 84 236
3 236 259 195
3 205 209 214
3 256 214 212
3 241 203 206
3 240 204 205
3 232 228 237
3 231 243 242
3 222 124 229
3 224 127 228
3 239 264 244
3 248 262 123
3 210 92 87
3 214 215 213
3 208 215 209
3 207 193 92
3 231 242 202
3 233 234 248
3 226 235 239
3 127 126 238
3 102 236 230
3 211 235 219
3 213 234 212
3 247 205 256
3 249 206 257
3 253 254 200
3 247 256 261
3 198 255 201
3 230 236 243
3 233 248 123
3 226 239 244
3 58 146 124
3 96 126 127
3 222 58 124
3 209 215 214
3 242 208 209
3 207 232 193
3 230 243 231
3 224 96 127
3 219 226 220
3 212 233 221
3 163 58 222
3 165 96 224
3 248 263 262
3 239 261 264
3 126 86 238
3 234 249 248
3 194 260 254
3 195 259 255
3 263 250 262
3 261 252 264
3 247 261 239
3 249 263 248
3 92 253 199
3 198 197 215
3 235 247 239
3 195 198 208
3 193 194 253
3 203 201 232
3 202 242 204
3 255 228 201
3 255 259 224
3 197 201 203
3 202 204 196
3 261 221 252
3 236 84 259
3 238 86 260
3 196 204 240
3 195 255 198
3 236 195 243
3 237 238 194
3 211 240 235
3 92 193 253
3 208 198 215
3 243 195 208
3 193 237 194
3 212 234 233
3 219 235 226
3 210 87 192
3 214 213 212
3 193 232 237
3 242 243 208
3 226 244 227
3 233 123 225
3 242 209 204
3 254 222 229
3 257 206 210
3 256 205 214
3 255 224 228
3 221 225 252
3 204 209 205
3 203 207 206
3 259 165 224
3 260 163 222
3 253 200 199
3 198 201 197
3 92 199 87
3 215 197 213
3 257 192 218
3 201 228 232
3 196 240 211
3 197 241 213
3 197 203 241
3 213 241 234
3 221 233 225
3 220 226 227
3 203 232 207
3 220 227 251
3 86 163 260
3 238 260 194
3 241 206 249
3 65 270 148
3 216 31 245
3 65 20 270
3 20 22 288
3 282 65 159
3 61 144 216
3 144 16 271
3 18 21 67
3 57 24 23
3 53 161 167
3 67 68 285
3 93 268 27
3 62 94 57
3 173 23 277
3 268 278 280
3 145 189 146
3 24 28 18
3 63 27 17
3 152 26 118
3 153 93 119
3 20 288 270
3 27 113 17
3 265 32 287
3 42 266 267
3 144 275 31
3 15 274 32
3 113 117 17
3 176 190 145
3 27 280 113
3 144 271 275
3 20 29 22
3 27 268 280
3 15 18 274
3 217 216 245
3 53 63 161
3 134 132 279
3 132 152 114
3 131 153 109
3 117 118 282
3 190 119 53
3 216 144 31
3 26 20 65
3 134 15 32
3 93 27 63
3 153 268 93
3 61 16 144
3 152 29 26
3 42 267 131
3 117 282 284
3 190 53 167
3 286 67 285
3 157 57 173
3 30 135 281
3 21 68 67
3 271 30 281
3 276 217 22
3 278 279 280
3 276 287 60
3 271 281 275
3 18 67 274
3 28 21 18
3 19 30 271
3 119 93 53
3 60 61 216
3 23 134 277
3 114 118 113
3 109 119 176
3 22 217 246
3 280 279 114
3 277 279 278
3 276 60 217
3 134 32 132
3 23 15 134
3 57 23 173
3 286 285 61
3 109 153 119
3 217 60 216
3 277 134 279
3 113 118 117
3 176 119 190
3 22 246 288
3 280 114 113
3 153 267 268
3 266 173 277
3 157 173 43
3 274 67 286
3 190 167 189
3 117 284 273
3 63 54 161
3 57 94 24
3 132 265 152
3 131 267 153
3 285 25 16
3 93 63 53
3 26 65 282
3 217 245 246
3 279 132 114
3 94 28 24
3 25 19 16
3 43 266 42
3 32 274 287
3 63 17 54
3 132 32 265
3 17 273 54
3 267 278 268
3 265 276 29
3 16 19 271
3 68 25 285
3 118 26 282
3 43 173 266
3 287 274 286
3 114 152 118
3 145 190 189
3 17 117 273
3 265 287 276
3 152 265 29
3 285 16 61
3 29 276 22
3 26 29 20
3 149 115 177
3 75 185 125
3 128 33 107
3 47 169 128
3 65 148 159
3 128 107 180
3 159 148 158
3 161 54 45
3 75 125 223
3 77 101 4
3 95 178 75
3 6 78 77
3 174 78 13
3 181 107 177
3 14 110 174
3 121 180 39
3 6 77 4
3 5 7 166
3 6 4 0
3 229 7 5
3 73 95 164
3 13 6 1
3 171 273 98
3 124 189 7
3 50 181 73
3 3 14 13
3 105 180 181
3 8 12 14
3 10 2 11
3 11 2 44
3 87 8 192
3 12 71 110
3 218 3 1
3 38 121 39
3 178 184 75
3 78 187 77
3 192 3 218
3 177 115 178
3 174 136 78
3 12 110 14
3 180 107 181
3 14 174 13
3 146 189 124
3 3 13 1
3 1 0 250
3 158 168 47
3 44 45 171
3 218 1 250
3 83 164 82
3 39 180 105
3 9 12 8
3 13 78 6
3 200 5 10
3 71 44 36
3 35 38 69
3 200 10 199
3 3 8 14
3 38 39 69
3 199 10 9
3 169 33 128
3 71 36 35
3 282 159 284
3 158 47 139
3 2 45 44
3 185 85 125
3 83 82 101
3 7 167 166
3 98 284 80
3 136 39 105
3 87 9 8
3 33 149 107
3 110 35 69
3 80 158 139
3 166 45 2
3 77 83 101
3 189 167 7
3 273 284 98
3 69 39 136
3 199 9 87
3 110 71 35
3 121 47 128
3 71 11 44
3 5 166 2
3 155 80 139
3 187 105 50
3 192 8 3
3 69 136 174
3 155 139 38
3 5 2 10
3 124 7 229
3 171 98 36
3 1 6 0
3 164 95 258
3 107 149 177
3 110 69 174
3 12 11 71
3 121 128 180
3 148 168 158
3 45 54 171
3 168 169 47
3 44 171 36
3 164 258 82
3 115 184 178
3 136 187 78
3 184 185 75
3 187 83 77
3 54 273 171
3 50 73 164
3 229 5 200
3 36 155 35
3 136 105 187
3 36 98 155
3 95 223 258
3 35 155 38
3 155 98 80
3 95 75 223
3 50 105 181
3 139 121 38
3 139 47 121
3 73 178 95
CELL_TYPES 478
5
5
5
5
5
5
5
5
5
5
5
5
5
5
5
5
5
5
5
5
5
5
5
5
5
5
5
5
5
5
5
5
5
5
5
5
5
5
5
5
5
5
5
5
5
5
5
5
5
5
5
5
5
5
5
5
5
5
5
5
5
5
5
5
5
5
5
5
5
5
5
5
5
5
5
5
5
5
5
5
5
5
5
5
5
5
5
5
5
5
5
5
5
5
5
5
5
5
5
5
5
5
5
5
5
5
5
5
5
5
5
5
5
5
5
5
5
5
5
5
5
5
5
5
5
5
5
5
5
5
5
5
5
5
5
5
5
5
5
5
5
5
5
5
5
5
5
5
5
5
5
5
5
5
5
5
5
5
5
5
5
5
5
5
5
5
5
5
5
5
5
5
5
5
5
5
5
5
5
5
5
5
5
5
5
5
5
5
5
5
5
5
5
5
5
5
5
5
5
5
5
5
5
5
5
5
5
5
5
5
5
5
5
5
5
5
5
5
5
5
5
5
5
5
5
5
5
5
5
5
5
5
5
5
5
5
5
5
5
5
5
5
5
5
5
5
5
5
5
5
5
5
5
5
5
5
5
5
5
5
5
5
5
5
5
5
5
5
5
5
5
5
5
5
5
5
5
5
5
5
5
5
5
5
5
5
5
5
5
5
5
5
5
5
5
5
5
5
5
5
5
5
5
5
5
5
5
5
5
5
5
5
5
5
5
5
5
5
5
5
5
5
5
5
5
5
5
5
5
5
5
5
5
5
5
5
5
5
5
5
5
5
5
5
5
5
5
5
5
5
5
5
5
5
5
5
5
5
5
5
5
5
5
5
5
5
5
5
5
5
5
5
5
5
5
5
5
5
5
5
5
5
5
5
5
5
5
5
5
5
5
5
5
5
5
5
5
5
5
5
5
5
5
5
5
5
5
5
5
5
5
5
5
5
5
5
5
5
5
5
5
5
5
5
5
5
5
5
5
5
5
5
5
5
5
5
5
5
5
5
5
5
5
5
5
5
5
5
5
5
5
5
5
5
5
5
5
5
5
5
5
5
5
5
5
5
5
5
5
5
5
5
5
5
5
5
5
5
CELL_DATA 478
VECTORS vector_value float
0.0315039 -0.992546 0
-0.0413212 -1.07332 0
0.216027 -1.05803 0
0.154485 -1.2687 0
0.162269 -0.937556 0
0.0877413 -1.28385 0
0.00674352 -1.13034 0
-0.097125 -1.50458 0
0.0585382 -1.09081 0
0.0608665 -1.29395 0
-0.0102206 -1.07665 0
0.00919362 -0.958222 0
-0.102947 -1.05647 0
0.104873 -1.31493 0
0.0634333 -1.04065 0
-0.118242 -1.4945 0
0.00115182 -1.06512 0
-0.0105181 -0.93784 0
-0.055415 -1.43859 0
-0.166716 -1.03604 0
-0.0886952 -0.621717 0
-0.0152829 -1.04534 0
-0.189803 -1.11017 0
0.0238139 -1.06691 0
-0.146909 -0.982931 0
-0.016855 -1.10193 0
0.180262 -1.02342 0
-0.125863 -0.892903 0
-0.0450524 -1.09539 0
-0.0521044 -1.42287 0
-0.0285141 -1.07358 0
0.0184777 -1.1274 0
-0.0662319 -1.08319 0
-0.12302 -0.897928 0
0.210101 -1.08954 0
-0.0175139 -1.1056 0
-0.168033 -1.01518 0
0.0646 -1.09902 0
-0.115752 -1.12809 0
0.0104738 -1.0927 0
-0.0889032 -1.11452 0
-0.0910925 -1.50235 0
0.35034 -1.06755 0
-0.0142554 -1.01901 0
-0.0816703 -1.57341 0
-0.0542868 -1.16317 0
0.121713 -1.06207 0
0.109227 -0.867466 0
0.00792654 -1.08573 0
-0.0103736 -1.09336 0
-0.0845276 -0.617227 0
-0.0391669 -1.10037 0
-0.057876 -0.686503 0
-0.0997876 -1.05192 0
-0.104554 -1.01945 0
-0.217664 -1.13808 0
0.123825 -1.0639 0
0.00688279 -1.17402 0
-0.0242849 -0.697538 0
0.0347279 -1.03184 0
-0.0220347 -0.990775 0
-0.107472 -1.07702 0
0.0819819 -1.26803 0
-0.0509673 -1.02549 0
0.0878043 -0.79056 0
-0.0575291 -1.07191 0
-0.106058 -0.687683 0
0.085167 -0.871555 0
-0.0802905 -0.653689 0
0.0231935 -1.08892 0
-0.00246141 -1.11334 0
-0.100237 -1.4824 0
0.00630078 -0.99892 0
-0.0706725 -1.47884 0
0.09554 -1.08558 0
-0.19282 -1.03666 0
0.222811 -1.04106 0
-0.0337744 -1.1389 0
0.22512 -1.03912 0
-0.0906623 -1.12941 0
0.0555047 -1.05065 0
-0.0796233 -1.05953 0
-0.0783573 -0.618479 0
-0.0582457 -1.05017 0
0.0609666 -1.09139 0
0.0932031 -1.39469 0
0.356287 -1.07573 0
0.095331 -1.31503 0
0.0397366 -1.15256 0
-0.086799 -1.06083 0
-0.125924 -1.4795 0
0.17402 -1.23565 0
-0.0173201 -1.05447 0
-0.0494675 -1.10969 0
0.0901851 -0.840665 0
-0.0922831 -1.08993 0
-0.114333 -1.03919 0
-0.0919393 -1.01628 0
0.0423847 -1.1141 0
-0.109913 -1.12263 0
0.19506 -0.938168 0
-0.00654198 -1.18785 0
-0.123207 -1.18982 0
-0.119685 -1.02626 0
-0.0569916 -1.08707 0
0.02844 -1.04247 0
-0.1674 -1.09221 0
0.0835133 -0.844365 0
-0.00340853 -1.10019 0
-0.19778 -1.13005 0
0.163441 -1.25248 0
-0.18252 -1.00026 0
-0.0463785 -1.01702 0
0.0441346 -1.07282 0
-0.0449506 -0.974196 0
0.0479679 -1.05863 0
-0.0377249 -1.14021 0
-0.128327 -0.662931 0
0.11265 -0.92708 0
0.0308908 -1.00809 0
0.0356189 -1.09056 0
0.044198 -1.00338 0
0.142345 -1.00163 0
0.0167985 -0.971558 0
0.0374809 -1.03712 0
0.0204321 -1.02052 0
-0.210316 -1.07011 0
-0.164945 -1.12963 0
-0.0409398 -1.15371 0
-0.0579253 -1.04583 0
-0.204639 -1.03651 0
0.114056 -0.748623 0
-0.138752 -1.29297 0
0.128226 -0.689753 0
0.131338 -0.643988 0
-0.0144429 -1.05208 0
0.0699725 -1.06951 0
0.136547 -1.4514 0
-0.104853 -1.0255 0
0.0450346 -1.01052 0
0.0722937 -1.52618 0
-0.0654299 -1.034 0
-0.0829285 -1.00329 0
0.120007 -0.666686 0
-0.00408048 -1.04946 0
-0.00119068 -1.12123 0
-0.113893 -0.942661 0
0.145966 -0.70778 0
-0.0202258 -1.12654 0
-0.0940832 -1.4516 0
-0.275625 -1.10178 0
0.258771 -1.62589 0
-0.125113 -0.88999 0
-0.00602207 -1.07416 0
0.262096 -1.61571 0
-0.118194 -1.02986 0
-0.0304819 -1.08404 0
0.0586184 -1.05303 0
-0.0474384 -1.01677 0
0.186658 -1.14539 0
0.33372 -1.06828 0
0.160153 -1.03642 0
-0.108618 -1.03488 0
-0.039758 -1.00029 0
0.203493 -0.97431 0
-0.0119291 -1.07583 0
0.334078 -1.06178 0
-0.065928 -1.14065 0
0.109788 -1.53675 0
0.0739662 -0.685725 0
0.177383 -0.696591 0
0.0347639 -1.00888 0
-0.190647 -1.03476 0
-0.103825 -0.954195 0
-0.055601 -1.07374 0
0.0159477 -1.06457 0
-0.0317453 -1.04724 0
0.0329382 -1.00321 0
-0.0493265 -0.909711 0
0.05655 -1.26523 0
0.00317071 -1.0093 0
-0.228629 -1.11658 0
-0.0800617 -1.01841 0
0.131721 -0.749805 0
-0.061755 -1.03703 0
0.0752552 -0.999615 0
0.0443011 -0.985963 0
0.0109686 -1.03328 0
-0.214493 -1.01137 0
0.0191658 -1.04307 0
-0.0223435 -1.0231 0
0.020653 -1.05635 0
0.194667 -0.685412 0
-0.101172 -1.09524 0
-0.303264 -1.06045 0
0.137819 -1.0594 0
-0.0649488 -1.06171 0
-0.0421244 -1.05652 0
0.0915859 -1.44066 0
0.0953253 -1.64059 0
-0.077567 -0.898846 0
-0.0800269 -1.01806 0
-0.0394337 -1.04091 0
0.207737 -1.05283 0
-0.120366 -1.32135 0
-0.216863 -1.1406 0
0.14968 -1.11476 0
-0.142283 -0.945019 0
0.20564 -0.964659 0
-0.0276774 -1.03329 0
-0.062583 -1.00688 0
0.108584 -1.04377 0
-0.00393956 -0.977774 0
0.054227 -1.05434 0
0.0782011 -0.668321 0
0.0432868 -1.2739 0
-0.0667937 -1.23309 0
0.259406 -1.00586 0
-0.0994895 -0.878953 0
0.0839626 -1.48471 0
-0.0663326 -0.911023 0
-0.143015 -0.925957 0
-0.0921401 -1.16196 0
-0.0786866 -1.00217 0
-0.140614 -1.35946 0
-0.0790731 -1.03372 0
0.0543359 -1.01947 0
-0.0799434 -0.852659 0
0.141457 -1.21482 0
-0.0993133 -1.08104 0
-0.0473027 -1.10639 0
-0.176361 -1.1375 0
0.239399 -1.10705 0
-0.0529879 -1.03396 0
0.19233 -1.06746 0
-0.0217375 -1.02174 0
-0.313519 -1.06695 0
-0.12475 -1.23376 0
-0.269147 -1.08082 0
-0.0550893 -1.10939 0
0.0219159 -1.16183 0
-0.0211736 -1.02331 0
0.0126861 -1.03166 0
-0.0821082 -0.889312 0
-0.0908565 -1.34845 0
-0.102261 -1.11225 0
-0.169533 -1.01988 0
0.078384 -1.43613 0
0.106643 -0.658054 0
0.0294484 -1.0911 0
0.0326898 -0.965161 0
-0.031514 -1.03695 0
-0.301265 -0.907725 0
0.140649 -0.950824 0
0.0392167 -1.18059 0
0.0736419 -0.611864 0
-0.0334301 -1.0058 0
0.0327966 -1.01962 0
-0.0240922 -0.964207 0
-0.00236769 -1.03313 0
-0.00552506 -1.02391 0
-0.188112 -1.07289 0
0.0993035 -1.42678 0
-0.00514142 -1.19637 0
0.169602 -1.22368 0
0.00918876 -1.0602 0
-0.0416899 -1.09952 0
0.0222134 -1.0101 0
-0.0396959 -1.17763 0
0.0323221 -1.02489 0
0.0492586 -0.98399 0
0.110566 -1.52649 0
0.0553288 -1.1355 0
-0.0950922 -0.864662 0
0.0232863 -1.11683 0
0.00486959 -1.03428 0
-0.142814 -1.02548 0
0.0653983 -1.0392 0
0.0368157 -1.02117 0
0.0126264 -1.20946 0
0.0128546 -0.997458 0
0.112009 -1.1115 0
0.00417058 -0.968113 0
0.00234203 -0.924343 0
-0.222014 -1.08928 0
0.0350748 -1.01213 0
-0.100486 -1.22677 0
0.17068 -1.02523 0
0.156412 -1.00066 0
0.168446 -1.07583 0
-0.0556458 -1.29231 0
-0.00428029 -1.11151 0
-0.0381042 -1.04263 0
-0.0214014 -1.11082 0
0.0744314 -1.04589 0
0.166047 -1.05642 0
0.14556 -0.677935 0
-0.0186225 -1.15153 0
-0.0353136 -1.32193 0
-0.0879942 -0.785101 0
-0.0190059 -1.0711 0
0.0258344 -0.982276 0
0.10763 -1.54852 0
-0.311712 -0.895002 0
0.0187877 -1.02947 0
-0.0823975 -1.01778 0
0.0319097 -1.06128 0
0.048741 -1.05314 0
0.086755 -1.39577 0
0.183549 -1.02915 0
0.0101989 -1.14354 0
-0.00450172 -0.699662 0
-0.0698389 -1.2515 0
0.132268 -0.697606 0
-0.0890742 -0.987073 0
0.196495 -1.15283 0
-0.0737868 -1.20203 0
0.0275477 -1.04535 0
-0.0322146 -1.04647 0
0.00965494 -1.04345 0
0.0256933 -1.02499 0
-0.124023 -0.834199 0
0.0214606 -0.697734 0
0.12387 -1.48834 0
0.201534 -1.21454 0
0.181373 -1.12232 0
0.183177 -1.15015 0
-0.213805 -1.06166 0
0.119731 -1.08506 0
-0.0183951 -1.02027 0
-0.243151 -1.00687 0
0.0154078 -0.99703 0
0.0224064 -0.942346 0
0.037195 -0.970687 0
0.021486 -1.08501 0
0.0202089 -1.07007 0
0.08999 -0.948733 0
-0.00928348 -1.0161 0
0.277574 -1.05782 0
-0.0443381 -1.36174 0
-0.0868523 -1.08084 0
-0.0645281 -1.08722 0
-0.0109076 -1.16615 0
0.0706551 -0.627091 0
0.0452417 -0.969311 0
-0.0457195 -1.04856 0
0.0197795 -1.05128 0
0.0540192 -1.01474 0
0.266632 -1.08446 0
0.127586 -1.57659 0
0.0196814 -1.02445 0
0.0405834 -1.13965 0
0.0334139 -1.12787 0
-0.06799 -0.881704 0
0.0187708 -0.994499 0
-0.0923869 -0.904377 0
0.0598493 -1.0185 0
0.0332507 -1.01401 0
-0.143244 -1.2003 0
0.0502871 -1.03157 0
-0.0195773 -1.00297 0
0.0276069 -1.00854 0
-0.198916 -1.10011 0
-0.0163899 -0.955205 0
-0.0886559 -1.57689 0
-0.0954157 -1.51045 0
0.0579773 -1.00595 0
-0.110288 -1.04769 0
0.107614 -0.93914 0
-0.0151973 -1.13403 0
0.10304 -1.11162 0
-0.142406 -0.68209 0
0.176386 -1.08691 0
0.0459626 -0.999664 0
-0.0579779 -1.06468 0
-0.149428 -1.06683 0
-0.0265463 -1.01906 0
0.0194095 -1.06481 0
-0.0618966 -1.26271 0
0.00640311 -1.05511 0
0.00047007 -1.2236 0
0.0412323 -1.15609 0
-0.262751 -1.62217 0
0.0492501 -1.03521 0
0.188298 -1.03325 0
0.137779 -0.900805 0
-0.141397 -0.63869 0
-0.16609 -0.924747 0
0.00387316 -1.094 0
0.132932 -1.2864 0
0.0209241 -1.03238 0
0.0276855 -1.02506 0
0.212912 -1.13344 0
0.102927 -1.31648 0
0.0327563 -1.03674 0
-0.0967561 -1.62804 0
0.172246 -1.09863 0
0.271253 -1.06415 0
0.0796811 -0.868588 0
0.115172 -1.06182 0
0.069676 -1.16749 0
0.0187947 -1.04569 0
0.0102252 -1.00928 0
0.204425 -1.09647 0
0.193914 -1.06985 0
0.020672 -1.01462 0
-0.206982 -0.686004 0
0.08888 -1.03912 0
-0.0880536 -0.689613 0
0.025188 -1.10211 0
0.185189 -1.05829 0
0.00744607 -1.06876 0
0.0401422 -1.07363 0
0.0448832 -1.33642 0
0.0216968 -1.00332 0
0.0511709 -1.05488 0
-0.119213 -1.54584 0
0.00457844 -1.01605 0
0.0158327 -1.09372 0
0.124959 -0.679204 0
0.0960525 -0.883567 0
0.0456196 -0.861982 0
0.0204637 -1.02046 0
-0.268059 -1.0073 0
-0.0853412 -1.46992 0
-0.0944273 -1.54405 0
0.0606627 -1.04181 0
-0.138846 -1.07008 0
-0.0248978 -1.03105 0
0.0632583 -1.10765 0
-0.108106 -0.675902 0
-0.139979 -0.639919 0
-0.247719 -1.11008 0
0.114062 -1.29242 0
0.102162 -1.34861 0
0.0826793 -1.05459 0
-0.182692 -1.20625 0
0.0354655 -1.13028 0
0.00503225 -0.976689 0
-0.152255 -1.0645 0
-0.164584 -0.924789 0
-0.15285 -1.02479 0
-0.12224 -0.747209 0
0.0113622 -1.05082 0
0.130772 -1.07424 0
-0.036666 -1.04529 0
0.0453853 -0.859015 0
0.0408706 -1.09534 0
0.01343 -1.17756 0
-0.00610245 -1.02749 0
0.182773 -1.03224 0
-0.144356 -1.04354 0
0.123033 -1.11188 0
-0.0798655 -1.47271 0
0.00702232 -0.973725 0
0.0906164 -1.39696 0
0.0874853 -1.32871 0
0.0582653 -1.10192 0
0.0735128 -1.10231 0
0.0386328 -0.908791 0
0.0924207 -1.4403 0
0.265572 -1.0848 0
0.0642203 -1.13497 0
-0.118202 -1.53437 0
0.00205839 -1.21866 0
-0.265218 -1.61317 0
0.0757196 -1.07958 0
0.00920763 -1.09193 0
0.13863 -0.940306 0
-0.0224619 -1.14104 0
0.0976056 -1.02449 0
0.00677706 -1.07202 0
-0.170322 -1.15252 0
0.0419587 -1.01514 0
-0.0510406 -1.27169 0
-0.0181274 -1.01184 0
-0.0153716 -0.959056 0
-0.139211 -0.748218 0
