# vtk DataFile Version 2.0
Unstructured Grid by M++
ASCII
DATASET UNSTRUCTURED_GRID
POINTS 289 float
  0.562500   1.000000 0
  0.562500   0.625000 0
  0.625000   1.000000 0
  0.562500   0.937500 0
  0.562500   0.562500 0
  0.625000   0.937500 0
  0.562500   0.875000 0
  0.625000   0.750000 0
  0.625000   0.625000 0
  0.562500   0.812500 0
  0.562500   0.750000 0
  0.562500   0.687500 0
  0.625000   0.875000 0
  0.625000   0.812500 0
  0.625000   0.687500 0
  0.687500   0.125000 0
  0.875000   0.062500 0
  0.625000   0.125000 0
  0.625000   0.187500 0
  0.625000   0.250000 0
  0.812500   0.187500 0
  1.000000   0.125000 0
  0.687500   0.187500 0
  0.750000   0.125000 0
  0.937500   0.062500 0
  0.937500   0.125000 0
  0.750000   0.187500 0
  0.812500   0.062500 0
  0.812500   0.125000 0
  0.875000   0.687500 0
  0.187500   0.250000 0
  0.437500   0.250000 0
  0.375000   0.187500 0
  0.812500   0.625000 0
  0.125000   0.187500 0
  0.937500   0.750000 0
  0.250000   0.312500 0
  0.500000   0.312500 0
  0.625000   0.062500 0
  0.437500   0.500000 0
  0.375000   0.125000 0
  0.437500   0.187500 0
  0.437500   0.437500 0
  0.437500   0.375000 0
  0.875000   0.875000 0
  0.187500   0.375000 0
  0.687500   0.562500 0
  0.687500   0.625000 0
  0.000000   0.125000 0
  0.937500   0.625000 0
  0.250000   0.125000 0
  0.375000   0.062500 0
  0.375000   0.000000 0
  0.812500   0.500000 0
  0.125000   0.000000 0
  0.937500   0.937500 0
  0.250000   0.437500 0
  0.687500   0.875000 0
  0.687500   0.937500 0
  0.000000   0.437500 0
  0.500000   0.500000 0
  0.500000   0.437500 0
  0.750000   0.937500 0
  0.750000   1.000000 0
  0.062500   0.500000 0
  1.000000   1.000000 0
  0.312500   0.500000 0
  0.875000   0.562500 0
  0.187500   0.062500 0
  0.437500   0.125000 0
  0.437500   0.062500 0
  0.500000   0.375000 0
  0.937500   0.812500 0
  0.937500   0.875000 0
  0.250000   0.375000 0
  0.687500   0.812500 0
  0.000000   0.375000 0
  0.750000   0.562500 0
  0.062500   0.125000 0
  1.000000   0.562500 0
  1.000000   0.625000 0
  0.312500   0.125000 0
  0.562500   0.125000 0
  0.437500   0.000000 0
  0.875000   0.437500 0
  0.875000   0.500000 0
  0.187500   0.000000 0
  0.937500   0.562500 0
  0.937500   0.500000 0
  0.250000   0.062500 0
  0.687500   0.500000 0
  0.000000   0.062500 0
  0.500000   0.062500 0
  1.000000   0.875000 0
  1.000000   0.937500 0
  0.312500   0.437500 0
  0.750000   0.875000 0
  0.062500   0.437500 0
  0.812500   0.937500 0
  0.125000   0.500000 0
  0.375000   0.500000 0
  0.625000   0.562500 0
  0.625000   0.500000 0
  0.437500   0.312500 0
  0.875000   0.812500 0
  0.875000   0.750000 0
  0.187500   0.312500 0
  0.812500   0.687500 0
  0.812500   0.750000 0
  0.125000   0.250000 0
  0.375000   0.250000 0
  1.000000   0.687500 0
  0.312500   0.187500 0
  0.750000   0.687500 0
  0.750000   0.625000 0
  0.062500   0.187500 0
  0.562500   0.250000 0
  0.562500   0.187500 0
  0.375000   1.000000 0
  0.500000   0.562500 0
  0.500000   0.250000 0
  0.750000   0.250000 0
  0.500000   0.125000 0
  0.500000   0.187500 0
  1.000000   0.187500 0
  0.625000   0.375000 0
  0.875000   0.375000 0
  1.000000   0.437500 0
  0.312500   0.000000 0
  0.562500   0.000000 0
  0.812500   0.000000 0
  0.250000   0.687500 0
  0.000000   0.687500 0
  0.500000   1.000000 0
  0.250000   1.000000 0
  0.000000   1.000000 0
  0.437500   0.687500 0
  0.437500   0.625000 0
  0.187500   0.625000 0
  0.687500   0.750000 0
  0.000000   0.312500 0
  0.000000   0.250000 0
  0.375000   0.375000 0
  0.375000   0.312500 0
  0.812500   0.812500 0
  0.125000   0.312500 0
  0.875000   0.625000 0
  0.187500   0.187500 0
  0.187500   0.125000 0
  0.937500   1.000000 0
  0.250000   0.562500 0
  0.250000   0.500000 0
  0.687500   1.000000 0
  0.000000   0.500000 0
  0.687500   0.687500 0
  0.000000   0.187500 0
  0.937500   0.687500 0
  0.250000   0.250000 0
  0.250000   0.187500 0
  0.187500   0.687500 0
  0.000000   0.750000 0
  0.250000   0.750000 0
  0.125000   0.625000 0
  0.750000   0.750000 0
  0.062500   0.250000 0
  0.875000   0.937500 0
  0.187500   0.500000 0
  0.187500   0.437500 0
  0.812500   0.562500 0
  0.125000   0.125000 0
  0.125000   0.062500 0
  0.375000   0.625000 0
  0.375000   0.687500 0
  1.000000   0.750000 0
  0.312500   0.250000 0
  0.312500   0.312500 0
  0.812500   0.312500 0
  0.562500   0.312500 0
  0.375000   0.750000 0
  0.500000   0.625000 0
  0.250000   0.625000 0
  0.312500   0.687500 0
  0.750000   0.812500 0
  0.062500   0.312500 0
  0.062500   0.375000 0
  1.000000   0.812500 0
  0.312500   0.375000 0
  0.562500   0.375000 0
  0.687500   0.437500 0
  0.000000   0.000000 0
  0.500000   0.000000 0
  0.937500   0.437500 0
  0.250000   0.000000 0
  0.375000   0.437500 0
  0.812500   0.875000 0
  0.125000   0.375000 0
  0.125000   0.437500 0
  0.625000   0.437500 0
  1.000000   0.500000 0
  0.312500   0.062500 0
  0.750000   0.500000 0
  0.062500   0.000000 0
  0.062500   0.062500 0
  0.562500   0.062500 0
  0.062500   0.750000 0
  0.312500   0.750000 0
  0.312500   0.625000 0
  0.312500   0.562500 0
  0.062500   0.562500 0
  0.187500   1.000000 0
  0.437500   0.562500 0
  0.875000   1.000000 0
  0.187500   0.562500 0
  0.500000   0.937500 0
  0.250000   0.937500 0
  0.312500   1.000000 0
  0.125000   0.750000 0
  0.125000   0.687500 0
  1.000000   0.000000 0
  0.000000   0.937500 0
  0.000000   0.875000 0
  0.875000   0.125000 0
  0.875000   0.187500 0
  0.062500   0.812500 0
  0.312500   0.812500 0
  0.000000   0.812500 0
  0.000000   0.625000 0
  0.000000   0.562500 0
  0.062500   1.000000 0
  0.062500   0.937500 0
  0.937500   0.187500 0
  0.937500   0.250000 0
  0.062500   0.687500 0
  0.062500   0.625000 0
  0.125000   1.000000 0
  1.000000   0.250000 0
  1.000000   0.312500 0
  0.062500   0.875000 0
  0.125000   0.812500 0
  0.375000   0.812500 0
  0.125000   0.875000 0
  0.375000   0.937500 0
  0.375000   0.875000 0
  0.187500   0.750000 0
  0.187500   0.812500 0
  0.437500   0.812500 0
  0.187500   0.875000 0
  0.437500   0.875000 0
  0.375000   0.562500 0
  0.812500   1.000000 0
  0.125000   0.562500 0
  0.437500   1.000000 0
  0.437500   0.937500 0
  0.187500   0.937500 0
  0.125000   0.937500 0
  0.500000   0.687500 0
  0.500000   0.750000 0
  0.500000   0.812500 0
  0.250000   0.812500 0
  0.250000   0.875000 0
  0.500000   0.875000 0
  0.437500   0.750000 0
  0.312500   0.875000 0
  0.312500   0.937500 0
  0.687500   0.250000 0
  0.687500   0.312500 0
  0.937500   0.312500 0
  0.875000   0.250000 0
  0.625000   0.000000 0
  0.875000   0.000000 0
  0.687500   0.375000 0
  0.937500   0.375000 0
  0.875000   0.312500 0
  0.625000   0.312500 0
  0.687500   0.000000 0
  0.937500   0.000000 0
  0.750000   0.312500 0
  0.750000   0.375000 0
  1.000000   0.375000 0
  0.812500   0.250000 0
  0.562500   0.437500 0
  0.562500   0.500000 0
  0.687500   0.062500 0
  0.750000   0.437500 0
  0.750000   0.000000 0
  0.750000   0.062500 0
  1.000000   0.062500 0
  0.812500   0.375000 0
  0.812500   0.437500 0
CELLS 256 1280
4 169 170 148 68
4 151 166 56 167
4 195 45 196 167
4 54 170 201 202
4 109 34 30 147
4 40 32 81 112
4 192 89 86 68
4 48 91 78 202
4 99 64 196 97
4 71 43 37 103
4 74 186 56 95
4 109 164 34 115
4 50 81 158 112
4 122 69 92 70
4 195 145 45 106
4 110 143 174 175
4 157 30 158 147
4 40 69 32 41
4 50 158 148 147
4 141 155 164 115
4 122 123 69 41
4 142 186 143 175
4 60 39 61 42
4 40 51 69 70
4 120 31 123 41
4 157 174 36 175
4 50 148 89 68
4 48 78 155 115
4 52 83 51 70
4 151 56 66 95
4 71 61 43 42
4 169 148 34 147
4 100 193 39 42
4 40 81 51 199
4 110 174 32 112
4 109 30 145 106
4 100 66 193 95
4 169 34 78 115
4 190 92 83 70
4 50 89 81 199
4 54 86 170 68
4 74 56 45 167
4 142 143 43 103
4 153 59 64 97
4 99 196 166 167
4 169 78 170 202
4 142 193 186 95
4 192 128 89 199
4 74 45 36 106
4 110 31 143 103
4 76 184 59 97
4 142 43 193 42
4 52 51 128 199
4 189 201 91 202
4 120 37 31 103
4 74 36 186 175
4 195 196 184 97
4 141 164 140 183
4 157 158 174 112
4 109 145 164 183
4 195 184 145 183
4 110 32 31 41
4 157 36 30 106
4 76 140 184 183
4 171 172 206 181
4 178 172 261 136
4 256 261 255 136
4 256 257 261 245
4 180 150 206 207
4 60 119 39 210
4 118 215 241 263
4 178 205 172 181
4 216 243 238 244
4 162 217 233 232
4 180 206 131 181
4 179 137 119 210
4 216 204 217 232
4 220 237 219 229
4 216 217 243 159
4 259 258 262 224
4 240 254 237 229
4 153 64 227 208
4 161 205 258 224
4 240 237 238 223
4 226 227 233 208
4 234 228 254 229
4 171 248 137 210
4 160 132 204 232
4 180 131 138 159
4 133 251 213 252
4 171 206 248 207
4 162 138 217 159
4 161 258 243 244
4 220 225 237 223
4 151 150 166 212
4 260 247 257 245
4 259 262 214 263
4 151 66 150 207
4 234 254 209 253
4 162 233 250 208
4 242 241 262 263
4 171 137 172 136
4 161 243 131 159
4 160 204 225 223
4 161 131 205 181
4 179 255 137 136
4 216 238 204 223
4 100 39 248 210
4 260 213 247 252
4 226 233 132 232
4 134 214 215 263
4 180 138 150 212
4 178 261 239 245
4 259 246 258 244
4 178 239 205 224
4 240 238 246 244
4 242 262 239 224
4 99 250 64 208
4 240 246 254 253
4 242 239 247 245
4 135 219 228 229
4 99 166 250 212
4 259 214 246 253
4 118 241 251 252
4 100 248 66 207
4 134 209 214 253
4 162 250 138 212
4 242 247 241 252
4 71 187 61 280
4 102 281 197 280
4 122 92 82 203
4 17 18 82 117
4 122 82 123 117
4 19 264 273 265
4 267 279 222 20
4 125 273 270 265
4 267 272 279 176
4 19 116 18 117
4 21 25 286 24
4 23 28 26 20
4 23 285 28 27
4 218 286 275 24
4 85 53 84 288
4 235 236 231 266
4 221 222 28 20
4 267 222 231 230
4 268 38 129 203
4 125 270 197 188
4 126 287 272 176
4 277 270 276 265
4 267 231 272 266
4 125 197 187 280
4 190 129 92 203
4 277 276 287 176
4 19 18 264 22
4 17 82 38 203
4 102 197 90 188
4 126 84 287 288
4 284 130 285 27
4 121 276 264 265
4 71 37 187 177
4 120 123 116 117
4 198 88 127 191
4 221 16 25 24
4 23 26 15 22
4 121 279 276 176
4 235 231 124 230
4 125 187 273 177
4 278 271 236 266
4 277 287 283 288
4 284 285 274 282
4 278 127 271 191
4 269 275 16 24
4 200 283 53 288
4 23 15 285 282
4 121 26 279 20
4 21 124 25 230
4 19 273 116 177
4 200 90 283 188
4 126 271 84 191
4 269 16 130 27
4 17 38 15 282
4 221 25 222 230
4 121 264 26 22
4 120 116 37 177
4 60 61 281 280
4 277 283 270 188
4 126 272 271 266
4 268 274 38 282
4 85 84 88 191
4 17 15 18 22
4 221 28 16 27
4 93 94 73 55
4 85 88 67 87
4 80 49 79 87
4 44 104 73 72
4 146 33 67 168
4 211 165 149 55
4 8 47 14 154
4 105 104 108 144
4 105 108 29 107
4 7 139 13 75
4 44 165 194 98
4 200 53 77 168
4 8 1 101 4
4 2 5 152 58
4 260 6 213 3
4 105 35 104 72
4 96 57 182 75
4 7 14 139 154
4 146 29 33 107
4 7 13 10 9
4 12 13 57 75
4 85 67 53 168
4 44 73 165 55
4 63 152 62 58
4 8 101 47 46
4 96 182 194 144
4 60 281 119 4
4 12 5 6 3
4 173 185 35 72
4 65 149 94 55
4 146 67 49 87
4 114 113 47 154
4 163 108 182 144
4 12 6 13 9
4 173 35 111 156
4 163 182 139 75
4 260 257 6 9
4 105 29 35 156
4 163 139 113 154
4 256 10 257 9
4 146 49 29 156
4 163 113 108 107
4 80 111 49 156
4 102 101 281 4
4 12 57 5 58
4 44 194 104 144
4 96 194 62 98
4 2 0 5 3
4 93 73 185 72
4 179 119 1 4
4 200 77 90 46
4 114 33 113 107
4 7 10 14 11
4 96 62 57 58
4 133 213 0 3
4 102 90 101 46
4 256 255 10 11
4 63 62 249 98
4 114 47 77 46
4 179 1 255 11
4 211 249 165 98
4 114 77 33 168
4 198 79 88 87
4 8 14 1 11
CELL_TYPES 256
8
8
8
8
8
8
8
8
8
8
8
8
8
8
8
8
8
8
8
8
8
8
8
8
8
8
8
8
8
8
8
8
8
8
8
8
8
8
8
8
8
8
8
8
8
8
8
8
8
8
8
8
8
8
8
8
8
8
8
8
8
8
8
8
8
8
8
8
8
8
8
8
8
8
8
8
8
8
8
8
8
8
8
8
8
8
8
8
8
8
8
8
8
8
8
8
8
8
8
8
8
8
8
8
8
8
8
8
8
8
8
8
8
8
8
8
8
8
8
8
8
8
8
8
8
8
8
8
8
8
8
8
8
8
8
8
8
8
8
8
8
8
8
8
8
8
8
8
8
8
8
8
8
8
8
8
8
8
8
8
8
8
8
8
8
8
8
8
8
8
8
8
8
8
8
8
8
8
8
8
8
8
8
8
8
8
8
8
8
8
8
8
8
8
8
8
8
8
8
8
8
8
8
8
8
8
8
8
8
8
8
8
8
8
8
8
8
8
8
8
8
8
8
8
8
8
8
8
8
8
8
8
8
8
8
8
8
8
8
8
8
8
8
8
8
8
8
8
8
8
8
8
8
8
8
8
CELL_DATA 256
VECTORS vector_value float
0.203714 -1.46779 0
-0.253 -0.840983 0
-0.176551 -0.841651 0
0.0266638 -1.14723 0
-0.156746 -2.01644 0
-0.503163 -0.66683 0
0.100946 -1.63601 0
-0.0470904 -1.04328 0
-0.0887703 -0.808486 0
0.114132 -1.8519 0
-0.262914 -0.559919 0
-0.217899 -1.79733 0
-0.465233 -0.775861 0
-0.0972515 -0.313879 0
-0.215802 -1.3428 0
-0.567631 -0.603323 0
-0.25824 -0.79427 0
-0.317451 -0.547883 0
-0.000591292 -1.35083 0
-0.0516486 -0.57822 0
-0.128888 -0.339889 0
-0.380577 -0.553109 0
0.0222976 -1.82547 0
-0.0992991 -0.38711 0
-0.130601 -0.571332 0
-0.552 -0.429595 0
0.191361 -1.65493 0
-0.162899 -0.895789 0
-0.0365242 -0.437056 0
-0.155848 -0.648689 0
0.185163 -2.21382 0
0.104654 -1.74058 0
0.296242 -1.81904 0
-0.146691 -0.62687 0
-0.659335 -0.755388 0
-0.401315 -1.96349 0
0.148637 -0.994645 0
-0.170762 -1.58157 0
-0.0882003 -0.387401 0
-0.0201478 -1.05717 0
0.0899072 -1.50176 0
-0.266411 -0.755916 0
-0.311014 -1.42005 0
-0.0476589 -1.24841 0
-0.150242 -0.563662 0
0.054089 -1.45231 0
-0.191176 -0.597618 0
0.06963 -1.32128 0
-0.471419 -0.733576 0
-0.512894 -1.19852 0
0.0792061 -1.20908 0
0.0224949 -1.72133 0
-0.00847115 -0.623245 0
-0.00908271 -1.1066 0
-0.041016 -1.08106 0
-0.406374 -0.472439 0
0.0364438 -0.93161 0
0.106342 -0.608263 0
-0.471654 -0.520342 0
0.0767124 -1.45678 0
0.192445 -1.19089 0
-0.463492 -0.8329 0
-0.613906 -0.686635 0
0.15535 -0.904553 0
0.165101 -0.906287 0
-0.0446269 -0.718786 0
-0.0264503 -0.826419 0
0.055399 -0.777238 0
0.432062 -1.16862 0
-0.135144 -1.5712 0
0.290702 -0.779229 0
-0.0651804 -0.901055 0
0.140614 -1.04677 0
0.218834 -0.74906 0
0.306497 -1.20478 0
-0.244735 -1.38092 0
0.238237 -0.82898 0
-0.0623577 -1.1412 0
0.275397 -0.957775 0
-0.0997819 -0.799987 0
-0.11751 -1.01249 0
-0.0964695 -1.02105 0
-0.0668094 -1.00642 0
-0.125708 -0.971086 0
-0.0266192 -0.894778 0
-0.0859439 -1.0364 0
0.122634 -0.965713 0
0.110731 -1.20183 0
0.335637 -1.25038 0
-0.00212234 -1.15004 0
0.422907 -1.11817 0
0.282998 -0.994252 0
0.055646 -0.868919 0
-0.0882758 -1.32944 0
-0.0274602 -0.88548 0
0.0957324 -0.787264 0
-0.0789603 -0.639322 0
0.171252 -0.936138 0
-0.0957097 -1.0151 0
-0.0796741 -0.735773 0
-0.0832738 -0.81473 0
0.0524634 -0.809676 0
0.183151 -1.22186 0
0.0350544 -1.36449 0
0.00497594 -1.00519 0
-0.160479 -0.992014 0
0.097797 -0.885308 0
0.168575 -1.50122 0
0.100588 -0.954106 0
0.0840306 -0.961043 0
0.0546727 -0.87967 0
0.221714 -1.07887 0
-0.0539146 -0.936341 0
-0.0567563 -0.865732 0
-0.138785 -0.766276 0
-0.118853 -1.02226 0
-0.17009 -0.784266 0
-0.230725 -0.809375 0
-0.100302 -0.952348 0
-0.0412746 -1.18128 0
-0.0334263 -1.02451 0
-0.164226 -0.666221 0
-0.128151 -1.04989 0
0.223003 -1.27371 0
0.361115 -1.16695 0
-0.0692893 -0.925552 0
-0.00726111 -0.890629 0
-0.0656556 -1.39369 0
0.235195 -1.48503 0
0.0430348 -1.16626 0
-0.0940461 -0.613038 0
0.219045 -1.64319 0
0.0386108 -0.784803 0
0.121192 -1.48203 0
-0.0606679 -0.552819 0
0.198482 -1.22944 0
0.0811956 -0.45743 0
0.327398 -1.72587 0
0.0385616 -1.04842 0
-0.0588067 -0.565668 0
-0.0642165 -0.545507 0
0.00819797 -1.08865 0
0.115653 -0.541507 0
0.0354093 -0.96159 0
-0.0356417 -0.559509 0
-0.0579096 -0.828266 0
-0.023389 -1.39553 0
0.173875 -0.97984 0
0.353775 -0.576654 0
0.0344046 -1.06569 0
0.0767091 -0.814238 0
0.264528 -1.05482 0
-0.0820959 -0.585051 0
0.133079 -0.584014 0
0.124426 -1.44104 0
0.00836392 -1.56672 0
0.0955175 -0.841093 0
0.317701 -0.65175 0
-0.0240128 -0.441546 0
0.0574408 -1.01808 0
0.412175 -1.43036 0
0.217276 -1.08973 0
0.0338011 -0.561121 0
0.0834617 -0.667566 0
-0.0482276 -1.09146 0
0.0654569 -0.495822 0
-0.00104732 -0.905678 0
0.375049 -1.13062 0
0.0934574 -0.761487 0
0.197836 -0.929614 0
0.00376086 -1.32995 0
0.0422688 -0.637833 0
0.0300397 -0.714707 0
0.183531 -1.09772 0
-0.0246793 -1.1017 0
0.00301533 -0.474936 0
0.0347087 -0.953655 0
0.320319 -1.32047 0
0.131012 -1.00548 0
0.157294 -0.462522 0
0.0156472 -0.343133 0
0.0663097 -2.01496 0
0.0413228 -0.685319 0
0.0440815 -1.11544 0
0.418497 -1.42268 0
-0.117741 -1.68602 0
0.0712624 -0.967639 0
0.342432 -0.752423 0
0.0362364 -1.94086 0
0.0764542 -0.351415 0
0.123069 -1.81716 0
0.0391145 -0.438742 0
-0.0568163 -0.769785 0
0.0624501 -0.378278 0
0.0414905 -0.34758 0
-0.0965962 -1.00988 0
-0.106313 -0.675811 0
-0.240242 -0.823801 0
-0.731356 -1.32512 0
-0.34478 -1.44702 0
-0.444058 -1.1299 0
-0.282867 -1.1406 0
0.131818 -1.17409 0
0.03076 -0.922104 0
-0.576281 -1.21156 0
0.665666 -0.975913 0
0.169447 -0.682016 0
-0.212631 -0.976054 0
-0.169615 -1.14835 0
-0.37867 -1.17063 0
-0.315266 -0.88066 0
-0.192205 -1.11462 0
-0.247355 -1.12384 0
-0.00479401 -0.567549 0
-0.0431629 -0.918253 0
0.465411 -1.30908 0
-0.562801 -1.42045 0
-0.0059479 -1.25913 0
-0.267022 -1.60154 0
0.127041 -0.577454 0
-0.103814 -0.560337 0
-0.0765167 -0.897463 0
0.0323548 -0.517612 0
-0.816882 -1.20094 0
-0.30125 -1.3166 0
-0.0391699 -0.788565 0
-0.0462575 -0.357439 0
-0.238136 -0.967997 0
0.121755 -0.757472 0
-0.21485 -0.875634 0
-0.557232 -1.11539 0
-0.00528196 -0.825016 0
-0.086119 -0.643431 0
-0.671243 -1.46918 0
-0.000440838 -0.308193 0
-0.322202 -1.38489 0
0.0773247 -0.991821 0
0.0109043 -1.48447 0
0.235407 -1.49332 0
0.47439 -0.73525 0
-0.0550949 -0.686975 0
-0.552179 -1.53796 0
0.0857577 -1.11721 0
-0.66658 -1.20689 0
-0.267045 -1.22131 0
0.0929631 -1.43548 0
0.123869 -0.768301 0
-0.0845978 -0.996516 0
-0.148672 -0.998615 0
0.0127977 -1.35002 0
-0.377688 -1.22587 0
-0.436573 -1.15765 0
-0.276757 -1.05596 0
-0.206568 -0.829692 0
0.0577823 -0.474288 0
-0.686168 -1.40961 0
