# vtk DataFile Version 2.0
Unstructured Grid by M++
ASCII
DATASET UNSTRUCTURED_GRID
POINTS 81 float
  1.000000   0.625000 0
  0.750000   0.375000 0
  1.000000   0.000000 0
  0.875000   0.875000 0
  0.750000   0.125000 0
  1.000000   1.000000 0
  0.875000   0.250000 0
  0.625000   0.875000 0
  1.000000   0.750000 0
  0.875000   0.000000 0
  1.000000   0.250000 0
  0.625000   0.375000 0
  0.875000   0.500000 0
  0.625000   0.625000 0
  1.000000   0.500000 0
  0.750000   0.500000 0
  0.750000   1.000000 0
  1.000000   0.125000 0
  0.625000   0.250000 0
  0.750000   0.750000 0
  0.625000   0.000000 0
  0.125000   0.375000 0
  0.000000   0.500000 0
  0.125000   0.625000 0
  0.625000   1.000000 0
  1.000000   0.875000 0
  0.875000   0.125000 0
  0.500000   0.250000 0
  0.625000   0.500000 0
  0.250000   0.625000 0
  0.000000   0.625000 0
  0.375000   0.500000 0
  0.375000   0.000000 0
  0.000000   0.125000 0
  0.125000   0.875000 0
  0.875000   1.000000 0
  0.750000   0.250000 0
  0.375000   0.375000 0
  0.250000   0.375000 0
  0.625000   0.750000 0
  0.125000   0.125000 0
  0.500000   0.000000 0
  0.250000   0.875000 0
  0.125000   0.500000 0
  0.500000   0.375000 0
  0.125000   0.000000 0
  0.250000   0.750000 0
  0.250000   0.500000 0
  0.000000   0.875000 0
  0.875000   0.625000 0
  0.500000   0.750000 0
  0.750000   0.625000 0
  0.250000   0.000000 0
  0.375000   0.750000 0
  0.750000   0.875000 0
  0.625000   0.125000 0
  0.250000   0.250000 0
  0.375000   1.000000 0
  0.375000   0.250000 0
  0.000000   0.375000 0
  0.500000   1.000000 0
  0.875000   0.750000 0
  0.750000   0.000000 0
  0.375000   0.125000 0
  0.500000   0.875000 0
  0.000000   0.000000 0
  0.125000   0.750000 0
  0.500000   0.625000 0
  0.125000   0.250000 0
  0.500000   0.125000 0
  0.250000   1.000000 0
  0.250000   0.125000 0
  0.000000   1.000000 0
  0.375000   0.875000 0
  0.000000   0.750000 0
  0.375000   0.625000 0
  0.000000   0.250000 0
  0.125000   1.000000 0
  1.000000   0.375000 0
  0.500000   0.500000 0
  0.875000   0.375000 0
CELLS 64 320
4 56 71 58 63
4 27 58 69 63
4 41 69 32 63
4 76 33 68 40
4 27 44 58 37
4 79 31 44 37
4 56 38 68 21
4 56 58 38 37
4 52 32 71 63
4 47 38 31 37
4 76 68 59 21
4 22 59 43 21
4 65 45 33 40
4 47 43 38 21
4 52 71 45 40
4 56 68 71 40
4 74 30 66 23
4 46 66 29 23
4 22 43 30 23
4 72 48 77 34
4 46 53 42 73
4 50 64 53 73
4 70 42 57 73
4 74 66 48 34
4 46 42 66 34
4 47 29 43 23
4 70 77 42 34
4 60 57 64 73
4 79 67 31 75
4 47 31 29 75
4 50 53 67 75
4 46 29 53 75
4 10 78 6 80
4 36 6 1 80
4 15 1 12 80
4 36 4 6 26
4 14 12 78 80
4 2 17 9 26
4 36 18 4 55
4 15 28 1 11
4 62 4 20 55
4 10 6 17 26
4 27 18 44 11
4 62 9 4 26
4 27 69 18 55
4 36 1 18 11
4 41 20 69 55
4 79 44 28 11
4 16 24 54 7
4 19 54 39 7
4 50 39 64 7
4 8 25 61 3
4 60 64 24 7
4 79 28 67 13
4 19 51 61 49
4 8 61 0 49
4 15 51 28 13
4 19 39 51 13
4 50 67 39 13
4 19 61 54 3
4 14 0 12 49
4 5 35 25 3
4 15 12 51 49
4 16 54 35 3
CELL_TYPES 64
8
8
8
8
8
8
8
8
8
8
8
8
8
8
8
8
8
8
8
8
8
8
8
8
8
8
8
8
8
8
8
8
8
8
8
8
8
8
8
8
8
8
8
8
8
8
8
8
8
8
8
8
8
8
8
8
8
8
8
8
8
8
8
8
CELL_DATA 64
VECTORS vector_value float
-1.84705 -2.4263 0
-0.124021 -0.163311 0
-0.020322 -0.0703174 0
0.275905 -0.993497 0
-2.89422 -2.07674 0
-0.255145 -1.22073 0
-0.668137 -0.80494 0
-1.51004 -1.20957 0
-0.196894 -1.10689 0
-0.0888197 -0.629467 0
-0.28962 -0.988352 0
0.000101446 -0.493275 0
0.049841 -0.450329 0
-0.07268 -0.76659 0
-0.237733 -4.18716 0
-0.733943 -2.19967 0
0.174491 -0.793444 0
1.14585 -1.35582 0
0.0737219 -0.601818 0
0.113444 -0.740914 0
0.219584 -0.614839 0
-0.204305 -1.65737 0
-0.615181 -0.892462 0
-0.114742 -1.84566 0
0.0108662 -0.868549 0
0.104809 -0.614934 0
-0.632562 -1.86247 0
-0.427874 -0.696408 0
0.1128 -0.439525 0
0.406436 -1.09613 0
1.53016 -1.65063 0
0.908219 -0.50725 0
-0.00114826 -0.135514 0
-0.0473532 -1.27754 0
-0.0523016 -0.20763 0
0.555192 -0.88457 0
-0.532284 -1.06776 0
0.337483 -1.63239 0
0.142539 -0.418403 0
-0.0234333 -0.106853 0
0.00941943 -0.090841 0
0.442755 -0.838549 0
-0.53565 -0.881293 0
0.194817 -0.366949 0
-0.0431065 -0.0757009 0
0.560829 -0.626057 0
-0.0158415 -0.0951251 0
-0.624158 -3.5077 0
0.231184 -0.261251 0
0.0142758 -0.0484016 0
-0.160046 -0.242405 0
0.0269674 -1.79218 0
-0.472764 -1.03139 0
0.0215582 -3.39263 0
-0.448661 -0.395973 0
-0.166198 -1.84306 0
-0.717901 -0.245767 0
-0.670584 -0.262767 0
0.465111 -1.19105 0
0.00806521 -0.9306 0
-0.114124 -1.3172 0
0.378991 -1.58984 0
-0.565199 -0.292 0
0.703775 -0.925273 0
