# vtk DataFile Version 2.0
Unstructured Grid by M++
ASCII
DATASET UNSTRUCTURED_GRID
POINTS 289 float
  0.562500   1.000000 0
  0.562500   0.625000 0
  0.625000   1.000000 0
  0.562500   0.937500 0
  0.562500   0.562500 0
  0.625000   0.937500 0
  0.562500   0.875000 0
  0.625000   0.750000 0
  0.625000   0.625000 0
  0.562500   0.812500 0
  0.562500   0.750000 0
  0.562500   0.687500 0
  0.625000   0.875000 0
  0.625000   0.812500 0
  0.625000   0.687500 0
  0.687500   0.125000 0
  0.875000   0.062500 0
  0.625000   0.125000 0
  0.625000   0.187500 0
  0.625000   0.250000 0
  0.812500   0.187500 0
  1.000000   0.125000 0
  0.687500   0.187500 0
  0.750000   0.125000 0
  0.937500   0.062500 0
  0.937500   0.125000 0
  0.750000   0.187500 0
  0.812500   0.062500 0
  0.812500   0.125000 0
  0.875000   0.687500 0
  0.187500   0.250000 0
  0.437500   0.250000 0
  0.375000   0.187500 0
  0.812500   0.625000 0
  0.125000   0.187500 0
  0.937500   0.750000 0
  0.250000   0.312500 0
  0.500000   0.312500 0
  0.625000   0.062500 0
  0.437500   0.500000 0
  0.375000   0.125000 0
  0.437500   0.187500 0
  0.437500   0.437500 0
  0.437500   0.375000 0
  0.875000   0.875000 0
  0.187500   0.375000 0
  0.687500   0.562500 0
  0.687500   0.625000 0
  0.000000   0.125000 0
  0.937500   0.625000 0
  0.250000   0.125000 0
  0.375000   0.062500 0
  0.375000   0.000000 0
  0.812500   0.500000 0
  0.125000   0.000000 0
  0.937500   0.937500 0
  0.250000   0.437500 0
  0.687500   0.875000 0
  0.687500   0.937500 0
  0.000000   0.437500 0
  0.500000   0.500000 0
  0.500000   0.437500 0
  0.750000   0.937500 0
  0.750000   1.000000 0
  0.062500   0.500000 0
  1.000000   1.000000 0
  0.312500   0.500000 0
  0.875000   0.562500 0
  0.187500   0.062500 0
  0.437500   0.125000 0
  0.437500   0.062500 0
  0.500000   0.375000 0
  0.937500   0.812500 0
  0.937500   0.875000 0
  0.250000   0.375000 0
  0.687500   0.812500 0
  0.000000   0.375000 0
  0.750000   0.562500 0
  0.062500   0.125000 0
  1.000000   0.562500 0
  1.000000   0.625000 0
  0.312500   0.125000 0
  0.562500   0.125000 0
  0.437500   0.000000 0
  0.875000   0.437500 0
  0.875000   0.500000 0
  0.187500   0.000000 0
  0.937500   0.562500 0
  0.937500   0.500000 0
  0.250000   0.062500 0
  0.687500   0.500000 0
  0.000000   0.062500 0
  0.500000   0.062500 0
  1.000000   0.875000 0
  1.000000   0.937500 0
  0.312500   0.437500 0
  0.750000   0.875000 0
  0.062500   0.437500 0
  0.812500   0.937500 0
  0.125000   0.500000 0
  0.375000   0.500000 0
  0.625000   0.562500 0
  0.625000   0.500000 0
  0.437500   0.312500 0
  0.875000   0.812500 0
  0.875000   0.750000 0
  0.187500   0.312500 0
  0.812500   0.687500 0
  0.812500   0.750000 0
  0.125000   0.250000 0
  0.375000   0.250000 0
  1.000000   0.687500 0
  0.312500   0.187500 0
  0.750000   0.687500 0
  0.750000   0.625000 0
  0.062500   0.187500 0
  0.562500   0.250000 0
  0.562500   0.187500 0
  0.375000   1.000000 0
  0.500000   0.562500 0
  0.500000   0.250000 0
  0.750000   0.250000 0
  0.500000   0.125000 0
  0.500000   0.187500 0
  1.000000   0.187500 0
  0.625000   0.375000 0
  0.875000   0.375000 0
  1.000000   0.437500 0
  0.312500   0.000000 0
  0.562500   0.000000 0
  0.812500   0.000000 0
  0.250000   0.687500 0
  0.000000   0.687500 0
  0.500000   1.000000 0
  0.250000   1.000000 0
  0.000000   1.000000 0
  0.437500   0.687500 0
  0.437500   0.625000 0
  0.187500   0.625000 0
  0.687500   0.750000 0
  0.000000   0.312500 0
  0.000000   0.250000 0
  0.375000   0.375000 0
  0.375000   0.312500 0
  0.812500   0.812500 0
  0.125000   0.312500 0
  0.875000   0.625000 0
  0.187500   0.187500 0
  0.187500   0.125000 0
  0.937500   1.000000 0
  0.250000   0.562500 0
  0.250000   0.500000 0
  0.687500   1.000000 0
  0.000000   0.500000 0
  0.687500   0.687500 0
  0.000000   0.187500 0
  0.937500   0.687500 0
  0.250000   0.250000 0
  0.250000   0.187500 0
  0.187500   0.687500 0
  0.000000   0.750000 0
  0.250000   0.750000 0
  0.125000   0.625000 0
  0.750000   0.750000 0
  0.062500   0.250000 0
  0.875000   0.937500 0
  0.187500   0.500000 0
  0.187500   0.437500 0
  0.812500   0.562500 0
  0.125000   0.125000 0
  0.125000   0.062500 0
  0.375000   0.625000 0
  0.375000   0.687500 0
  1.000000   0.750000 0
  0.312500   0.250000 0
  0.312500   0.312500 0
  0.812500   0.312500 0
  0.562500   0.312500 0
  0.375000   0.750000 0
  0.500000   0.625000 0
  0.250000   0.625000 0
  0.312500   0.687500 0
  0.750000   0.812500 0
  0.062500   0.312500 0
  0.062500   0.375000 0
  1.000000   0.812500 0
  0.312500   0.375000 0
  0.562500   0.375000 0
  0.687500   0.437500 0
  0.000000   0.000000 0
  0.500000   0.000000 0
  0.937500   0.437500 0
  0.250000   0.000000 0
  0.375000   0.437500 0
  0.812500   0.875000 0
  0.125000   0.375000 0
  0.125000   0.437500 0
  0.625000   0.437500 0
  1.000000   0.500000 0
  0.312500   0.062500 0
  0.750000   0.500000 0
  0.062500   0.000000 0
  0.062500   0.062500 0
  0.562500   0.062500 0
  0.062500   0.750000 0
  0.312500   0.750000 0
  0.312500   0.625000 0
  0.312500   0.562500 0
  0.062500   0.562500 0
  0.187500   1.000000 0
  0.437500   0.562500 0
  0.875000   1.000000 0
  0.187500   0.562500 0
  0.500000   0.937500 0
  0.250000   0.937500 0
  0.312500   1.000000 0
  0.125000   0.750000 0
  0.125000   0.687500 0
  1.000000   0.000000 0
  0.000000   0.937500 0
  0.000000   0.875000 0
  0.875000   0.125000 0
  0.875000   0.187500 0
  0.062500   0.812500 0
  0.312500   0.812500 0
  0.000000   0.812500 0
  0.000000   0.625000 0
  0.000000   0.562500 0
  0.062500   1.000000 0
  0.062500   0.937500 0
  0.937500   0.187500 0
  0.937500   0.250000 0
  0.062500   0.687500 0
  0.062500   0.625000 0
  0.125000   1.000000 0
  1.000000   0.250000 0
  1.000000   0.312500 0
  0.062500   0.875000 0
  0.125000   0.812500 0
  0.375000   0.812500 0
  0.125000   0.875000 0
  0.375000   0.937500 0
  0.375000   0.875000 0
  0.187500   0.750000 0
  0.187500   0.812500 0
  0.437500   0.812500 0
  0.187500   0.875000 0
  0.437500   0.875000 0
  0.375000   0.562500 0
  0.812500   1.000000 0
  0.125000   0.562500 0
  0.437500   1.000000 0
  0.437500   0.937500 0
  0.187500   0.937500 0
  0.125000   0.937500 0
  0.500000   0.687500 0
  0.500000   0.750000 0
  0.500000   0.812500 0
  0.250000   0.812500 0
  0.250000   0.875000 0
  0.500000   0.875000 0
  0.437500   0.750000 0
  0.312500   0.875000 0
  0.312500   0.937500 0
  0.687500   0.250000 0
  0.687500   0.312500 0
  0.937500   0.312500 0
  0.875000   0.250000 0
  0.625000   0.000000 0
  0.875000   0.000000 0
  0.687500   0.375000 0
  0.937500   0.375000 0
  0.875000   0.312500 0
  0.625000   0.312500 0
  0.687500   0.000000 0
  0.937500   0.000000 0
  0.750000   0.312500 0
  0.750000   0.375000 0
  1.000000   0.375000 0
  0.812500   0.250000 0
  0.562500   0.437500 0
  0.562500   0.500000 0
  0.687500   0.062500 0
  0.750000   0.437500 0
  0.750000   0.000000 0
  0.750000   0.062500 0
  1.000000   0.062500 0
  0.812500   0.375000 0
  0.812500   0.437500 0
CELLS 256 1280
4 169 170 148 68
4 151 166 56 167
4 195 45 196 167
4 54 170 201 202
4 109 34 30 147
4 40 32 81 112
4 192 89 86 68
4 48 91 78 202
4 99 64 196 97
4 71 43 37 103
4 74 186 56 95
4 109 164 34 115
4 50 81 158 112
4 122 69 92 70
4 195 145 45 106
4 110 143 174 175
4 157 30 158 147
4 40 69 32 41
4 50 158 148 147
4 141 155 164 115
4 122 123 69 41
4 142 186 143 175
4 60 39 61 42
4 40 51 69 70
4 120 31 123 41
4 157 174 36 175
4 50 148 89 68
4 48 78 155 115
4 52 83 51 70
4 151 56 66 95
4 71 61 43 42
4 169 148 34 147
4 100 193 39 42
4 40 81 51 199
4 110 174 32 112
4 109 30 145 106
4 100 66 193 95
4 169 34 78 115
4 190 92 83 70
4 50 89 81 199
4 54 86 170 68
4 74 56 45 167
4 142 143 43 103
4 153 59 64 97
4 99 196 166 167
4 169 78 170 202
4 142 193 186 95
4 192 128 89 199
4 74 45 36 106
4 110 31 143 103
4 76 184 59 97
4 142 43 193 42
4 52 51 128 199
4 189 201 91 202
4 120 37 31 103
4 74 36 186 175
4 195 196 184 97
4 141 164 140 183
4 157 158 174 112
4 109 145 164 183
4 195 184 145 183
4 110 32 31 41
4 157 36 30 106
4 76 140 184 183
4 171 172 206 181
4 178 172 261 136
4 256 261 255 136
4 256 257 261 245
4 180 150 206 207
4 60 119 39 210
4 118 215 241 263
4 178 205 172 181
4 216 243 238 244
4 162 217 233 232
4 180 206 131 181
4 179 137 119 210
4 216 204 217 232
4 220 237 219 229
4 216 217 243 159
4 259 258 262 224
4 240 254 237 229
4 153 64 227 208
4 161 205 258 224
4 240 237 238 223
4 226 227 233 208
4 234 228 254 229
4 171 248 137 210
4 160 132 204 232
4 180 131 138 159
4 133 251 213 252
4 171 206 248 207
4 162 138 217 159
4 161 258 243 244
4 220 225 237 223
4 151 150 166 212
4 260 247 257 245
4 259 262 214 263
4 151 66 150 207
4 234 254 209 253
4 162 233 250 208
4 242 241 262 263
4 171 137 172 136
4 161 243 131 159
4 160 204 225 223
4 161 131 205 181
4 179 255 137 136
4 216 238 204 223
4 100 39 248 210
4 260 213 247 252
4 226 233 132 232
4 134 214 215 263
4 180 138 150 212
4 178 261 239 245
4 259 246 258 244
4 178 239 205 224
4 240 238 246 244
4 242 262 239 224
4 99 250 64 208
4 240 246 254 253
4 242 239 247 245
4 135 219 228 229
4 99 166 250 212
4 259 214 246 253
4 118 241 251 252
4 100 248 66 207
4 134 209 214 253
4 162 250 138 212
4 242 247 241 252
4 71 187 61 280
4 102 281 197 280
4 122 92 82 203
4 17 18 82 117
4 122 82 123 117
4 19 264 273 265
4 267 279 222 20
4 125 273 270 265
4 267 272 279 176
4 19 116 18 117
4 21 25 286 24
4 23 28 26 20
4 23 285 28 27
4 218 286 275 24
4 85 53 84 288
4 235 236 231 266
4 221 222 28 20
4 267 222 231 230
4 268 38 129 203
4 125 270 197 188
4 126 287 272 176
4 277 270 276 265
4 267 231 272 266
4 125 197 187 280
4 190 129 92 203
4 277 276 287 176
4 19 18 264 22
4 17 82 38 203
4 102 197 90 188
4 126 84 287 288
4 284 130 285 27
4 121 276 264 265
4 71 37 187 177
4 120 123 116 117
4 198 88 127 191
4 221 16 25 24
4 23 26 15 22
4 121 279 276 176
4 235 231 124 230
4 125 187 273 177
4 278 271 236 266
4 277 287 283 288
4 284 285 274 282
4 278 127 271 191
4 269 275 16 24
4 200 283 53 288
4 23 15 285 282
4 121 26 279 20
4 21 124 25 230
4 19 273 116 177
4 200 90 283 188
4 126 271 84 191
4 269 16 130 27
4 17 38 15 282
4 221 25 222 230
4 121 264 26 22
4 120 116 37 177
4 60 61 281 280
4 277 283 270 188
4 126 272 271 266
4 268 274 38 282
4 85 84 88 191
4 17 15 18 22
4 221 28 16 27
4 93 94 73 55
4 85 88 67 87
4 80 49 79 87
4 44 104 73 72
4 146 33 67 168
4 211 165 149 55
4 8 47 14 154
4 105 104 108 144
4 105 108 29 107
4 7 139 13 75
4 44 165 194 98
4 200 53 77 168
4 8 1 101 4
4 2 5 152 58
4 260 6 213 3
4 105 35 104 72
4 96 57 182 75
4 7 14 139 154
4 146 29 33 107
4 7 13 10 9
4 12 13 57 75
4 85 67 53 168
4 44 73 165 55
4 63 152 62 58
4 8 101 47 46
4 96 182 194 144
4 60 281 119 4
4 12 5 6 3
4 173 185 35 72
4 65 149 94 55
4 146 67 49 87
4 114 113 47 154
4 163 108 182 144
4 12 6 13 9
4 173 35 111 156
4 163 182 139 75
4 260 257 6 9
4 105 29 35 156
4 163 139 113 154
4 256 10 257 9
4 146 49 29 156
4 163 113 108 107
4 80 111 49 156
4 102 101 281 4
4 12 57 5 58
4 44 194 104 144
4 96 194 62 98
4 2 0 5 3
4 93 73 185 72
4 179 119 1 4
4 200 77 90 46
4 114 33 113 107
4 7 10 14 11
4 96 62 57 58
4 133 213 0 3
4 102 90 101 46
4 256 255 10 11
4 63 62 249 98
4 114 47 77 46
4 179 1 255 11
4 211 249 165 98
4 114 77 33 168
4 198 79 88 87
4 8 14 1 11
CELL_TYPES 256
8
8
8
8
8
8
8
8
8
8
8
8
8
8
8
8
8
8
8
8
8
8
8
8
8
8
8
8
8
8
8
8
8
8
8
8
8
8
8
8
8
8
8
8
8
8
8
8
8
8
8
8
8
8
8
8
8
8
8
8
8
8
8
8
8
8
8
8
8
8
8
8
8
8
8
8
8
8
8
8
8
8
8
8
8
8
8
8
8
8
8
8
8
8
8
8
8
8
8
8
8
8
8
8
8
8
8
8
8
8
8
8
8
8
8
8
8
8
8
8
8
8
8
8
8
8
8
8
8
8
8
8
8
8
8
8
8
8
8
8
8
8
8
8
8
8
8
8
8
8
8
8
8
8
8
8
8
8
8
8
8
8
8
8
8
8
8
8
8
8
8
8
8
8
8
8
8
8
8
8
8
8
8
8
8
8
8
8
8
8
8
8
8
8
8
8
8
8
8
8
8
8
8
8
8
8
8
8
8
8
8
8
8
8
8
8
8
8
8
8
8
8
8
8
8
8
8
8
8
8
8
8
8
8
8
8
8
8
8
8
8
8
8
8
8
8
8
8
8
8
8
8
8
8
8
8
CELL_DATA 256
VECTORS vector_value float
0.135421 -0.532818 0
0.000186086 -0.201788 0
0.124578 -0.518501 0
0.00269753 -0.172616 0
0.0149741 -0.747854 0
-0.386048 -2.09701 0
0.0345036 -1.16684 0
-0.0218107 -0.131122 0
0.201741 -0.569207 0
-1.2472 -2.82222 0
-0.505734 -0.761446 0
-0.000548789 -0.514009 0
0.0751675 -3.30865 0
-0.0128313 -1.58682 0
0.0115927 -0.656878 0
-1.30527 -1.54167 0
0.141988 -1.15296 0
-0.46977 -2.34661 0
0.220215 -0.953828 0
-0.0014702 -0.0779004 0
-0.296341 -1.74795 0
-0.958016 -1.16746 0
-0.767731 -2.61214 0
-0.0895246 -2.29861 0
-0.661841 -2.01388 0
-0.746969 -1.48358 0
0.185568 -1.06507 0
-0.0134937 -0.08281 0
0.131613 -2.26361 0
-0.19218 -0.661407 0
-1.37345 -2.34568 0
0.196329 -0.718733 0
-0.545499 -1.33069 0
0.114676 -2.53571 0
-0.657307 -1.55231 0
-0.0595618 -0.746542 0
-0.273568 -0.974114 0
0.0493246 -0.431326 0
0.219675 -1.43113 0
0.246463 -3.37924 0
0.04297 -0.450964 0
-0.198935 -0.522972 0
-1.46456 -2.68879 0
0.0814144 -0.371846 0
0.0976179 -0.283846 0
0.014203 -0.258109 0
-0.537377 -1.10086 0
0.127272 -2.94132 0
-0.304739 -1.05404 0
-1.17462 -2.08827 0
0.042781 -0.234971 0
-0.757932 -1.80299 0
0.211061 -2.87215 0
-0.0106083 -0.166634 0
-1.19286 -2.84177 0
-0.516149 -0.777104 0
0.10416 -0.428221 0
0.00899211 -0.0766255 0
-0.189103 -2.66534 0
-0.00152736 -0.443757 0
0.0920734 -0.432199 0
-0.943503 -2.47505 0
-0.0994601 -1.39342 0
0.0446076 -0.131762 0
0.465388 -1.45676 0
0.534419 -2.07074 0
0.795567 -1.2458 0
0.939601 -2.07318 0
0.157291 -0.550491 0
0.0116285 -2.40256 0
1.37401 -1.2785 0
0.189966 -1.27946 0
0.0533101 -0.486405 0
0.204808 -0.742929 0
0.405108 -0.706739 0
0.418786 -1.94516 0
0.104665 -0.773101 0
0.129357 -0.711642 0
0.286827 -0.406622 0
0.12962 -0.465005 0
0.294414 -0.84194 0
0.00948204 -0.457393 0
0.0903915 -0.48484 0
-0.00103851 -0.774166 0
0.000883185 -0.439743 0
0.124489 -0.670753 0
0.671248 -1.30361 0
0.0208211 -0.654154 0
0.26001 -0.284934 0
-0.721604 -1.35668 0
0.302906 -1.12313 0
0.163134 -0.242118 0
0.104115 -0.27698 0
0.000742205 -0.685637 0
0.0976741 -0.194168 0
0.357045 -1.51485 0
0.447013 -0.715869 0
0.075459 -0.452532 0
0.519489 -0.641419 0
0.0350003 -0.605304 0
0.42307 -1.20995 0
0.441053 -1.36714 0
0.346138 -0.325313 0
0.0146225 -0.630248 0
0.213158 -0.65168 0
0.490882 -1.20593 0
-0.00127864 -0.956686 0
0.13394 -0.960366 0
-0.172389 -1.79813 0
0.0734468 -0.541801 0
1.2767 -0.831538 0
0.0958915 -0.154065 0
0.2772 -2.06302 0
0.0649567 -0.366819 0
0.0589557 -1.62982 0
-0.011293 -0.650707 0
0.085882 -1.28227 0
0.0243251 -0.558425 0
0.178968 -0.569867 0
0.331114 -3.37711 0
0.035148 -1.10765 0
0.055075 -0.270044 0
0.225479 -0.485269 0
0.40254 -1.98806 0
0.0924074 -1.13742 0
0.958528 -0.865642 0
0.132999 -0.38043 0
0.141896 -2.85711 0
-1.44779 -4.94621 0
-0.780842 -2.98667 0
0.0956335 -1.05731 0
0.100164 -0.436686 0
0.0181933 -1.46869 0
0.196915 -0.275859 0
0.321464 -0.160034 0
0.208579 -0.604612 0
0.489566 -0.186983 0
0.190818 -0.608734 0
-0.0998203 -0.761607 0
0.108088 -0.130619 0
0.0531639 -0.15723 0
-0.0610651 -0.531751 0
0.0672504 -0.0293606 0
0.206168 -0.676745 0
0.117339 -0.210192 0
0.223439 -0.365791 0
0.0491145 -0.513321 0
0.188727 -0.9642 0
0.368729 -0.223308 0
0.384433 -0.384508 0
0.465361 -0.249379 0
-0.202907 -1.48323 0
0.140859 -1.39595 0
0.323835 -0.151253 0
0.203865 -0.25533 0
0.166524 -0.708503 0
0.129596 -1.22925 0
0.102021 -0.0521827 0
0.0328353 -0.324056 0
0.310081 -0.311987 0
-0.539856 -3.05087 0
-0.236926 -2.07005 0
0.0244174 -0.154012 0
-0.101716 -0.784847 0
0.10842 -0.155368 0
0.405149 -0.191495 0
0.0384674 -0.966109 0
-0.166718 -1.35886 0
0.0998135 -0.362668 0
0.296731 -0.196747 0
0.114056 -0.2647 0
0.0385165 -0.22092 0
-0.140236 -0.883949 0
0.123197 -0.0690522 0
0.12845 -0.25519 0
0.354107 -0.180126 0
-0.049965 -0.907978 0
-0.0153873 -0.891253 0
0.183613 -0.280662 0
0.0818154 -0.0708414 0
-0.0899164 -0.332186 0
0.0886172 -0.240717 0
-0.0138014 -0.615006 0
0.236276 -0.194526 0
-0.578579 -2.60068 0
-0.870244 -4.1953 0
0.364205 -0.35003 0
0.23705 -0.133475 0
0.145523 -0.288842 0
0.0549622 -0.0506561 0
0.166914 -0.388553 0
-0.000176325 -0.247096 0
-0.101755 -0.846631 0
0.0133227 -0.039702 0
-0.00158824 -0.10779 0
-0.444649 -0.727711 0
-0.0145714 -0.0315047 0
0.130746 -1.448 0
-0.329973 -1.59825 0
-0.661519 -0.246831 0
-0.298951 -0.0889699 0
-1.22901 -3.01576 0
-0.832476 -1.22296 0
0.0131352 -0.0306348 0
-0.510915 -4.52892 0
-0.319698 -0.644718 0
-0.162452 -0.87879 0
-0.35898 -0.297723 0
-1.27835 -0.871457 0
-0.963783 -2.24864 0
-0.0279773 -0.0326526 0
-0.101163 -1.19863 0
-0.69089 -1.88384 0
0.023749 -0.0362537 0
-0.457136 -1.21063 0
-0.0566193 -0.878539 0
-0.374916 -1.75633 0
-1.40697 -0.588619 0
-0.763466 -3.91887 0
-0.113373 -0.429501 0
-0.122061 -0.423863 0
-0.0383833 -1.03524 0
-0.00974829 -0.0442392 0
-0.273694 -0.677414 0
-1.1303 -0.414972 0
0.0796007 -0.735843 0
-0.0686409 -0.214657 0
-1.22406 -0.784157 0
0.208385 -0.729795 0
-0.204923 -0.10907 0
-0.428733 -0.709014 0
0.567894 -1.01689 0
-0.0251535 -0.0417604 0
-0.293625 -0.14925 0
-0.017398 -0.134814 0
-0.68154 -3.78213 0
-0.286077 -0.973088 0
-0.934731 -0.720389 0
-0.453225 -0.241709 0
-0.667056 -0.847805 0
-0.0953294 -0.625791 0
-0.217433 -2.62594 0
0.00872797 -0.309034 0
-0.105473 -0.109687 0
-0.687758 -3.4705 0
-0.721495 -1.00692 0
-0.897419 -0.846712 0
-0.129072 -1.33622 0
0.810807 -1.60303 0
0.124797 -0.705744 0
-0.132009 -0.341991 0
0.232647 -2.42337 0
0.437006 -0.852991 0
-0.030062 -0.0613486 0
0.00432059 -0.114251 0
-0.268232 -4.43369 0
