# vtk DataFile Version 2.0
Unstructured Grid by M++
ASCII
DATASET UNSTRUCTURED_GRID
POINTS 289 float
  0.562500   1.000000 0
  0.562500   0.625000 0
  0.625000   1.000000 0
  0.562500   0.937500 0
  0.562500   0.562500 0
  0.625000   0.937500 0
  0.562500   0.875000 0
  0.625000   0.750000 0
  0.625000   0.625000 0
  0.562500   0.812500 0
  0.562500   0.750000 0
  0.562500   0.687500 0
  0.625000   0.875000 0
  0.625000   0.812500 0
  0.625000   0.687500 0
  0.687500   0.125000 0
  0.875000   0.062500 0
  0.625000   0.125000 0
  0.625000   0.187500 0
  0.625000   0.250000 0
  0.812500   0.187500 0
  1.000000   0.125000 0
  0.687500   0.187500 0
  0.750000   0.125000 0
  0.937500   0.062500 0
  0.937500   0.125000 0
  0.750000   0.187500 0
  0.812500   0.062500 0
  0.812500   0.125000 0
  0.875000   0.687500 0
  0.187500   0.250000 0
  0.437500   0.250000 0
  0.375000   0.187500 0
  0.812500   0.625000 0
  0.125000   0.187500 0
  0.937500   0.750000 0
  0.250000   0.312500 0
  0.500000   0.312500 0
  0.625000   0.062500 0
  0.437500   0.500000 0
  0.375000   0.125000 0
  0.437500   0.187500 0
  0.437500   0.437500 0
  0.437500   0.375000 0
  0.875000   0.875000 0
  0.187500   0.375000 0
  0.687500   0.562500 0
  0.687500   0.625000 0
  0.000000   0.125000 0
  0.937500   0.625000 0
  0.250000   0.125000 0
  0.375000   0.062500 0
  0.375000   0.000000 0
  0.812500   0.500000 0
  0.125000   0.000000 0
  0.937500   0.937500 0
  0.250000   0.437500 0
  0.687500   0.875000 0
  0.687500   0.937500 0
  0.000000   0.437500 0
  0.500000   0.500000 0
  0.500000   0.437500 0
  0.750000   0.937500 0
  0.750000   1.000000 0
  0.062500   0.500000 0
  1.000000   1.000000 0
  0.312500   0.500000 0
  0.875000   0.562500 0
  0.187500   0.062500 0
  0.437500   0.125000 0
  0.437500   0.062500 0
  0.500000   0.375000 0
  0.937500   0.812500 0
  0.937500   0.875000 0
  0.250000   0.375000 0
  0.687500   0.812500 0
  0.000000   0.375000 0
  0.750000   0.562500 0
  0.062500   0.125000 0
  1.000000   0.562500 0
  1.000000   0.625000 0
  0.312500   0.125000 0
  0.562500   0.125000 0
  0.437500   0.000000 0
  0.875000   0.437500 0
  0.875000   0.500000 0
  0.187500   0.000000 0
  0.937500   0.562500 0
  0.937500   0.500000 0
  0.250000   0.062500 0
  0.687500   0.500000 0
  0.000000   0.062500 0
  0.500000   0.062500 0
  1.000000   0.875000 0
  1.000000   0.937500 0
  0.312500   0.437500 0
  0.750000   0.875000 0
  0.062500   0.437500 0
  0.812500   0.937500 0
  0.125000   0.500000 0
  0.375000   0.500000 0
  0.625000   0.562500 0
  0.625000   0.500000 0
  0.437500   0.312500 0
  0.875000   0.812500 0
  0.875000   0.750000 0
  0.187500   0.312500 0
  0.812500   0.687500 0
  0.812500   0.750000 0
  0.125000   0.250000 0
  0.375000   0.250000 0
  1.000000   0.687500 0
  0.312500   0.187500 0
  0.750000   0.687500 0
  0.750000   0.625000 0
  0.062500   0.187500 0
  0.562500   0.250000 0
  0.562500   0.187500 0
  0.375000   1.000000 0
  0.500000   0.562500 0
  0.500000   0.250000 0
  0.750000   0.250000 0
  0.500000   0.125000 0
  0.500000   0.187500 0
  1.000000   0.187500 0
  0.625000   0.375000 0
  0.875000   0.375000 0
  1.000000   0.437500 0
  0.312500   0.000000 0
  0.562500   0.000000 0
  0.812500   0.000000 0
  0.250000   0.687500 0
  0.000000   0.687500 0
  0.500000   1.000000 0
  0.250000   1.000000 0
  0.000000   1.000000 0
  0.437500   0.687500 0
  0.437500   0.625000 0
  0.187500   0.625000 0
  0.687500   0.750000 0
  0.000000   0.312500 0
  0.000000   0.250000 0
  0.375000   0.375000 0
  0.375000   0.312500 0
  0.812500   0.812500 0
  0.125000   0.312500 0
  0.875000   0.625000 0
  0.187500   0.187500 0
  0.187500   0.125000 0
  0.937500   1.000000 0
  0.250000   0.562500 0
  0.250000   0.500000 0
  0.687500   1.000000 0
  0.000000   0.500000 0
  0.687500   0.687500 0
  0.000000   0.187500 0
  0.937500   0.687500 0
  0.250000   0.250000 0
  0.250000   0.187500 0
  0.187500   0.687500 0
  0.000000   0.750000 0
  0.250000   0.750000 0
  0.125000   0.625000 0
  0.750000   0.750000 0
  0.062500   0.250000 0
  0.875000   0.937500 0
  0.187500   0.500000 0
  0.187500   0.437500 0
  0.812500   0.562500 0
  0.125000   0.125000 0
  0.125000   0.062500 0
  0.375000   0.625000 0
  0.375000   0.687500 0
  1.000000   0.750000 0
  0.312500   0.250000 0
  0.312500   0.312500 0
  0.812500   0.312500 0
  0.562500   0.312500 0
  0.375000   0.750000 0
  0.500000   0.625000 0
  0.250000   0.625000 0
  0.312500   0.687500 0
  0.750000   0.812500 0
  0.062500   0.312500 0
  0.062500   0.375000 0
  1.000000   0.812500 0
  0.312500   0.375000 0
  0.562500   0.375000 0
  0.687500   0.437500 0
  0.000000   0.000000 0
  0.500000   0.000000 0
  0.937500   0.437500 0
  0.250000   0.000000 0
  0.375000   0.437500 0
  0.812500   0.875000 0
  0.125000   0.375000 0
  0.125000   0.437500 0
  0.625000   0.437500 0
  1.000000   0.500000 0
  0.312500   0.062500 0
  0.750000   0.500000 0
  0.062500   0.000000 0
  0.062500   0.062500 0
  0.562500   0.062500 0
  0.062500   0.750000 0
  0.312500   0.750000 0
  0.312500   0.625000 0
  0.312500   0.562500 0
  0.062500   0.562500 0
  0.187500   1.000000 0
  0.437500   0.562500 0
  0.875000   1.000000 0
  0.187500   0.562500 0
  0.500000   0.937500 0
  0.250000   0.937500 0
  0.312500   1.000000 0
  0.125000   0.750000 0
  0.125000   0.687500 0
  1.000000   0.000000 0
  0.000000   0.937500 0
  0.000000   0.875000 0
  0.875000   0.125000 0
  0.875000   0.187500 0
  0.062500   0.812500 0
  0.312500   0.812500 0
  0.000000   0.812500 0
  0.000000   0.625000 0
  0.000000   0.562500 0
  0.062500   1.000000 0
  0.062500   0.937500 0
  0.937500   0.187500 0
  0.937500   0.250000 0
  0.062500   0.687500 0
  0.062500   0.625000 0
  0.125000   1.000000 0
  1.000000   0.250000 0
  1.000000   0.312500 0
  0.062500   0.875000 0
  0.125000   0.812500 0
  0.375000   0.812500 0
  0.125000   0.875000 0
  0.375000   0.937500 0
  0.375000   0.875000 0
  0.187500   0.750000 0
  0.187500   0.812500 0
  0.437500   0.812500 0
  0.187500   0.875000 0
  0.437500   0.875000 0
  0.375000   0.562500 0
  0.812500   1.000000 0
  0.125000   0.562500 0
  0.437500   1.000000 0
  0.437500   0.937500 0
  0.187500   0.937500 0
  0.125000   0.937500 0
  0.500000   0.687500 0
  0.500000   0.750000 0
  0.500000   0.812500 0
  0.250000   0.812500 0
  0.250000   0.875000 0
  0.500000   0.875000 0
  0.437500   0.750000 0
  0.312500   0.875000 0
  0.312500   0.937500 0
  0.687500   0.250000 0
  0.687500   0.312500 0
  0.937500   0.312500 0
  0.875000   0.250000 0
  0.625000   0.000000 0
  0.875000   0.000000 0
  0.687500   0.375000 0
  0.937500   0.375000 0
  0.875000   0.312500 0
  0.625000   0.312500 0
  0.687500   0.000000 0
  0.937500   0.000000 0
  0.750000   0.312500 0
  0.750000   0.375000 0
  1.000000   0.375000 0
  0.812500   0.250000 0
  0.562500   0.437500 0
  0.562500   0.500000 0
  0.687500   0.062500 0
  0.750000   0.437500 0
  0.750000   0.000000 0
  0.750000   0.062500 0
  1.000000   0.062500 0
  0.812500   0.375000 0
  0.812500   0.437500 0
CELLS 256 1280
4 169 170 148 68
4 151 166 56 167
4 195 45 196 167
4 54 170 201 202
4 109 34 30 147
4 40 32 81 112
4 192 89 86 68
4 48 91 78 202
4 99 64 196 97
4 71 43 37 103
4 74 186 56 95
4 109 164 34 115
4 50 81 158 112
4 122 69 92 70
4 195 145 45 106
4 110 143 174 175
4 157 30 158 147
4 40 69 32 41
4 50 158 148 147
4 141 155 164 115
4 122 123 69 41
4 142 186 143 175
4 60 39 61 42
4 40 51 69 70
4 120 31 123 41
4 157 174 36 175
4 50 148 89 68
4 48 78 155 115
4 52 83 51 70
4 151 56 66 95
4 71 61 43 42
4 169 148 34 147
4 100 193 39 42
4 40 81 51 199
4 110 174 32 112
4 109 30 145 106
4 100 66 193 95
4 169 34 78 115
4 190 92 83 70
4 50 89 81 199
4 54 86 170 68
4 74 56 45 167
4 142 143 43 103
4 153 59 64 97
4 99 196 166 167
4 169 78 170 202
4 142 193 186 95
4 192 128 89 199
4 74 45 36 106
4 110 31 143 103
4 76 184 59 97
4 142 43 193 42
4 52 51 128 199
4 189 201 91 202
4 120 37 31 103
4 74 36 186 175
4 195 196 184 97
4 141 164 140 183
4 157 158 174 112
4 109 145 164 183
4 195 184 145 183
4 110 32 31 41
4 157 36 30 106
4 76 140 184 183
4 171 172 206 181
4 178 172 261 136
4 256 261 255 136
4 256 257 261 245
4 180 150 206 207
4 60 119 39 210
4 118 215 241 263
4 178 205 172 181
4 216 243 238 244
4 162 217 233 232
4 180 206 131 181
4 179 137 119 210
4 216 204 217 232
4 220 237 219 229
4 216 217 243 159
4 259 258 262 224
4 240 254 237 229
4 153 64 227 208
4 161 205 258 224
4 240 237 238 223
4 226 227 233 208
4 234 228 254 229
4 171 248 137 210
4 160 132 204 232
4 180 131 138 159
4 133 251 213 252
4 171 206 248 207
4 162 138 217 159
4 161 258 243 244
4 220 225 237 223
4 151 150 166 212
4 260 247 257 245
4 259 262 214 263
4 151 66 150 207
4 234 254 209 253
4 162 233 250 208
4 242 241 262 263
4 171 137 172 136
4 161 243 131 159
4 160 204 225 223
4 161 131 205 181
4 179 255 137 136
4 216 238 204 223
4 100 39 248 210
4 260 213 247 252
4 226 233 132 232
4 134 214 215 263
4 180 138 150 212
4 178 261 239 245
4 259 246 258 244
4 178 239 205 224
4 240 238 246 244
4 242 262 239 224
4 99 250 64 208
4 240 246 254 253
4 242 239 247 245
4 135 219 228 229
4 99 166 250 212
4 259 214 246 253
4 118 241 251 252
4 100 248 66 207
4 134 209 214 253
4 162 250 138 212
4 242 247 241 252
4 71 187 61 280
4 102 281 197 280
4 122 92 82 203
4 17 18 82 117
4 122 82 123 117
4 19 264 273 265
4 267 279 222 20
4 125 273 270 265
4 267 272 279 176
4 19 116 18 117
4 21 25 286 24
4 23 28 26 20
4 23 285 28 27
4 218 286 275 24
4 85 53 84 288
4 235 236 231 266
4 221 222 28 20
4 267 222 231 230
4 268 38 129 203
4 125 270 197 188
4 126 287 272 176
4 277 270 276 265
4 267 231 272 266
4 125 197 187 280
4 190 129 92 203
4 277 276 287 176
4 19 18 264 22
4 17 82 38 203
4 102 197 90 188
4 126 84 287 288
4 284 130 285 27
4 121 276 264 265
4 71 37 187 177
4 120 123 116 117
4 198 88 127 191
4 221 16 25 24
4 23 26 15 22
4 121 279 276 176
4 235 231 124 230
4 125 187 273 177
4 278 271 236 266
4 277 287 283 288
4 284 285 274 282
4 278 127 271 191
4 269 275 16 24
4 200 283 53 288
4 23 15 285 282
4 121 26 279 20
4 21 124 25 230
4 19 273 116 177
4 200 90 283 188
4 126 271 84 191
4 269 16 130 27
4 17 38 15 282
4 221 25 222 230
4 121 264 26 22
4 120 116 37 177
4 60 61 281 280
4 277 283 270 188
4 126 272 271 266
4 268 274 38 282
4 85 84 88 191
4 17 15 18 22
4 221 28 16 27
4 93 94 73 55
4 85 88 67 87
4 80 49 79 87
4 44 104 73 72
4 146 33 67 168
4 211 165 149 55
4 8 47 14 154
4 105 104 108 144
4 105 108 29 107
4 7 139 13 75
4 44 165 194 98
4 200 53 77 168
4 8 1 101 4
4 2 5 152 58
4 260 6 213 3
4 105 35 104 72
4 96 57 182 75
4 7 14 139 154
4 146 29 33 107
4 7 13 10 9
4 12 13 57 75
4 85 67 53 168
4 44 73 165 55
4 63 152 62 58
4 8 101 47 46
4 96 182 194 144
4 60 281 119 4
4 12 5 6 3
4 173 185 35 72
4 65 149 94 55
4 146 67 49 87
4 114 113 47 154
4 163 108 182 144
4 12 6 13 9
4 173 35 111 156
4 163 182 139 75
4 260 257 6 9
4 105 29 35 156
4 163 139 113 154
4 256 10 257 9
4 146 49 29 156
4 163 113 108 107
4 80 111 49 156
4 102 101 281 4
4 12 57 5 58
4 44 194 104 144
4 96 194 62 98
4 2 0 5 3
4 93 73 185 72
4 179 119 1 4
4 200 77 90 46
4 114 33 113 107
4 7 10 14 11
4 96 62 57 58
4 133 213 0 3
4 102 90 101 46
4 256 255 10 11
4 63 62 249 98
4 114 47 77 46
4 179 1 255 11
4 211 249 165 98
4 114 77 33 168
4 198 79 88 87
4 8 14 1 11
CELL_TYPES 256
8
8
8
8
8
8
8
8
8
8
8
8
8
8
8
8
8
8
8
8
8
8
8
8
8
8
8
8
8
8
8
8
8
8
8
8
8
8
8
8
8
8
8
8
8
8
8
8
8
8
8
8
8
8
8
8
8
8
8
8
8
8
8
8
8
8
8
8
8
8
8
8
8
8
8
8
8
8
8
8
8
8
8
8
8
8
8
8
8
8
8
8
8
8
8
8
8
8
8
8
8
8
8
8
8
8
8
8
8
8
8
8
8
8
8
8
8
8
8
8
8
8
8
8
8
8
8
8
8
8
8
8
8
8
8
8
8
8
8
8
8
8
8
8
8
8
8
8
8
8
8
8
8
8
8
8
8
8
8
8
8
8
8
8
8
8
8
8
8
8
8
8
8
8
8
8
8
8
8
8
8
8
8
8
8
8
8
8
8
8
8
8
8
8
8
8
8
8
8
8
8
8
8
8
8
8
8
8
8
8
8
8
8
8
8
8
8
8
8
8
8
8
8
8
8
8
8
8
8
8
8
8
8
8
8
8
8
8
8
8
8
8
8
8
8
8
8
8
8
8
8
8
8
8
8
8
CELL_DATA 256
VECTORS vector_value float
0.168911 -1.03021 0
-0.317186 -0.836771 0
-0.424352 -0.885688 0
0.0305469 -0.539463 0
0.173936 -0.656208 0
0.0332134 -0.0939463 0
-0.000969492 -0.715944 0
0.0117213 -0.268584 0
-0.0236482 -0.102401 0
0.00450723 -0.0353979 0
-0.525474 -0.707593 0
0.413379 -1.20005 0
0.0176982 -0.129967 0
-0.126991 -0.302731 0
-1.01644 -1.49863 0
0.0161204 -0.133485 0
0.0201504 -0.304543 0
0.0350272 -0.0958447 0
0.0952606 -0.378174 0
0.128552 -0.560124 0
-0.059786 -0.215829 0
-0.0147654 -0.110187 0
0.0648825 -0.12829 0
-0.0283567 -0.172451 0
-0.00321329 -0.0745976 0
-0.00012865 -0.204123 0
0.193791 -0.738798 0
0.0199116 -0.296413 0
-0.0315571 -0.285751 0
-0.501557 -1.20085 0
0.0138352 -0.0857277 0
0.405454 -1.19164 0
-0.0753136 -0.221044 0
0.0167099 -0.0530569 0
0.0586498 -0.116708 0
-0.331343 -0.708409 0
-0.243661 -0.38426 0
0.183309 -0.840339 0
-0.0329213 -0.301537 0
0.0383531 -0.176796 0
0.0227906 -1.11648 0
-0.888377 -1.05149 0
-0.00201339 -0.070938 0
0.00240817 -0.0374398 0
-0.0830386 -0.323785 0
0.0851334 -0.623134 0
-0.131475 -0.238085 0
0.0144308 -0.191556 0
-0.542553 -0.676934 0
0.00783543 -0.0360965 0
-0.00963694 -0.0528021 0
-0.0124146 -0.0500995 0
0.00941583 -0.0737919 0
0.00549622 -0.246938 0
0.0141901 -0.0500321 0
-0.0961498 -0.270052 0
-0.030996 -0.0979584 0
-0.181151 -0.47011 0
0.0233219 -0.153856 0
-0.801101 -1.22785 0
-0.297883 -0.307186 0
0.0506821 -0.0735638 0
-0.0645968 -0.300822 0
-0.077295 -0.169033 0
-0.129292 -1.10413 0
0.669465 -2.18301 0
1.05279 -1.14241 0
0.788609 -0.991315 0
-0.256975 -0.871066 0
0.116692 -0.163192 0
2.01432 -1.72538 0
0.100725 -1.09811 0
0.392715 -0.226077 0
0.100782 -0.079901 0
-0.0544013 -0.653737 0
0.336376 -0.344887 0
0.152052 -0.139813 0
0.267718 -1.10289 0
0.157356 -0.15849 0
0.364605 -0.286337 0
0.560988 -0.602514 0
0.00734459 -0.0510447 0
0.254804 -0.391133 0
0.430008 -0.521561 0
0.0115117 -0.0673459 0
-0.136094 -0.726122 0
0.0251555 -0.73229 0
0.074033 -0.233317 0
0.0792091 -0.333357 0
-0.423307 -1.16558 0
-0.239446 -0.930928 0
0.139528 -0.179547 0
0.297658 -0.145711 0
0.0958051 -0.593073 0
-0.161964 -0.615732 0
0.571328 -1.03305 0
0.617961 -0.281859 0
-0.335644 -1.02604 0
0.4471 -0.361968 0
0.0323382 -0.0340644 0
0.604331 -1.93357 0
0.240925 -1.16861 0
0.219346 -0.256141 0
0.110423 -0.406289 0
0.0908741 -0.541977 0
1.03388 -1.1106 0
0.284273 -0.237048 0
-0.033917 -0.431605 0
0.822949 -1.60145 0
0.0280869 -0.114007 0
2.13609 -0.677548 0
-0.0664951 -0.456496 0
0.813777 -2.66442 0
0.477369 -0.0777388 0
0.440507 -1.58354 0
0.583234 -0.200439 0
0.464404 -1.96468 0
0.00533319 -0.0352175 0
0.530119 -0.133973 0
0.492624 -2.684 0
-0.117482 -1.39898 0
-0.0518763 -0.265484 0
0.550564 -0.0597028 0
0.674065 -2.03346 0
-0.345458 -0.743399 0
1.34778 -0.44331 0
0.0450614 -0.21174 0
0.641711 -2.68356 0
0.0468847 -0.0995742 0
0.31761 -0.570801 0
-0.158877 -0.648832 0
-0.496022 -1.33199 0
-0.187814 -0.451743 0
-0.405143 -1.28735 0
-0.461247 -2.61031 0
-0.15128 -1.24285 0
0.462286 -1.52001 0
-0.348935 -0.71107 0
-0.161576 -2.15574 0
-0.37593 -1.55541 0
-0.618376 -2.02185 0
-0.0804141 -1.53984 0
2.15433 -2.51588 0
-0.163279 -2.32999 0
-0.903992 -3.58355 0
-0.847461 -4.23199 0
0.0256165 -0.90273 0
0.178754 -1.20609 0
0.413984 -1.17731 0
0.0289597 -2.41115 0
-0.0422742 -4.14416 0
0.079437 -0.241712 0
-0.0084815 -0.544273 0
0.388218 -1.62605 0
-0.51395 -1.28227 0
0.0161984 -1.04145 0
0.462204 -1.06818 0
0.796934 -1.79874 0
-0.178251 -2.43149 0
0.022524 -1.67736 0
0.00777423 -0.0928479 0
-0.147127 -0.412998 0
0.349237 -0.537547 0
-0.287188 -1.55317 0
-0.148066 -0.388428 0
0.526779 -1.27639 0
-0.13567 -1.68718 0
-0.0307325 -0.24655 0
0.242615 -2.19327 0
0.368841 -1.93471 0
-0.0650037 -0.71578 0
0.416834 -1.4873 0
-0.150098 -2.16587 0
1.30277 -2.23254 0
-0.271166 -0.609967 0
0.268198 -1.2286 0
0.146608 -1.79427 0
-0.266733 -0.456949 0
0.752204 -2.80923 0
0.803193 -3.56176 0
-0.09616 -3.06767 0
-0.00534127 -0.912553 0
-0.343519 -2.83732 0
-0.0812487 -0.695933 0
-0.0552356 -0.176865 0
0.0845366 -0.103257 0
0.178558 -2.50067 0
0.545107 -3.87161 0
0.00785669 -1.16089 0
1.91191 -2.92772 0
-0.35061 -0.81514 0
-0.62417 -3.69067 0
-0.16729 -0.574337 0
0.747009 -0.995833 0
0.0215799 -0.0627392 0
-0.369195 -0.398938 0
0.547093 -0.803239 0
-0.28635 -0.885416 0
1.52793 -3.17203 0
-0.628474 -0.981123 0
-0.187884 -0.428901 0
0.619828 -1.76593 0
-0.507544 -2.28176 0
2.44218 -3.0359 0
0.75704 -0.588504 0
0.240492 -0.645563 0
0.526222 -1.20134 0
-0.200552 -0.204897 0
-0.234486 -0.64226 0
0.855146 -2.55821 0
0.13245 -0.402196 0
0.988575 -1.26219 0
0.248618 -0.95064 0
2.50874 -2.45086 0
-0.535624 -0.785118 0
0.58132 -0.846105 0
1.60087 -3.02444 0
-0.957604 -2.05834 0
0.257794 -0.272653 0
0.0488204 -0.469366 0
-0.0374055 -0.110835 0
-0.113639 -0.884642 0
0.181492 -0.265023 0
1.15122 -3.35342 0
-0.867745 -2.54624 0
1.0243 -1.06136 0
-0.014276 -0.0604356 0
-0.315543 -1.56028 0
1.10909 -1.34551 0
-0.0299704 -0.0588284 0
0.0248151 -2.45192 0
0.850809 -0.922982 0
0.00128201 -0.0672864 0
-0.482388 -2.73208 0
-0.00232732 -0.0387883 0
0.573834 -0.888239 0
-0.0758483 -0.520399 0
-0.957822 -1.85501 0
-0.0157771 -1.20874 0
-0.310565 -0.424368 0
-0.145307 -0.32707 0
1.02722 -0.770324 0
1.73483 -3.49079 0
0.558046 -2.70988 0
1.21775 -1.25166 0
0.020735 -0.559417 0
-0.633755 -1.01167 0
0.762873 -1.34808 0
1.101 -0.704703 0
0.626427 -1.19268 0
1.67227 -3.28612 0
0.934943 -0.549954 0
0.0750033 -1.57721 0
1.47404 -3.5508 0
0.100828 -0.185932 0
1.44098 -0.962562 0
