# vtk DataFile Version 2.0
Unstructured Grid by M++
ASCII
DATASET UNSTRUCTURED_GRID
POINTS 81 float
  1.000000   0.625000 0
  0.750000   0.375000 0
  1.000000   0.000000 0
  0.875000   0.875000 0
  0.750000   0.125000 0
  1.000000   1.000000 0
  0.875000   0.250000 0
  0.625000   0.875000 0
  1.000000   0.750000 0
  0.875000   0.000000 0
  1.000000   0.250000 0
  0.625000   0.375000 0
  0.875000   0.500000 0
  0.625000   0.625000 0
  1.000000   0.500000 0
  0.750000   0.500000 0
  0.750000   1.000000 0
  1.000000   0.125000 0
  0.625000   0.250000 0
  0.750000   0.750000 0
  0.625000   0.000000 0
  0.125000   0.375000 0
  0.000000   0.500000 0
  0.125000   0.625000 0
  0.625000   1.000000 0
  1.000000   0.875000 0
  0.875000   0.125000 0
  0.500000   0.250000 0
  0.625000   0.500000 0
  0.250000   0.625000 0
  0.000000   0.625000 0
  0.375000   0.500000 0
  0.375000   0.000000 0
  0.000000   0.125000 0
  0.125000   0.875000 0
  0.875000   1.000000 0
  0.750000   0.250000 0
  0.375000   0.375000 0
  0.250000   0.375000 0
  0.625000   0.750000 0
  0.125000   0.125000 0
  0.500000   0.000000 0
  0.250000   0.875000 0
  0.125000   0.500000 0
  0.500000   0.375000 0
  0.125000   0.000000 0
  0.250000   0.750000 0
  0.250000   0.500000 0
  0.000000   0.875000 0
  0.875000   0.625000 0
  0.500000   0.750000 0
  0.750000   0.625000 0
  0.250000   0.000000 0
  0.375000   0.750000 0
  0.750000   0.875000 0
  0.625000   0.125000 0
  0.250000   0.250000 0
  0.375000   1.000000 0
  0.375000   0.250000 0
  0.000000   0.375000 0
  0.500000   1.000000 0
  0.875000   0.750000 0
  0.750000   0.000000 0
  0.375000   0.125000 0
  0.500000   0.875000 0
  0.000000   0.000000 0
  0.125000   0.750000 0
  0.500000   0.625000 0
  0.125000   0.250000 0
  0.500000   0.125000 0
  0.250000   1.000000 0
  0.250000   0.125000 0
  0.000000   1.000000 0
  0.375000   0.875000 0
  0.000000   0.750000 0
  0.375000   0.625000 0
  0.000000   0.250000 0
  0.125000   1.000000 0
  1.000000   0.375000 0
  0.500000   0.500000 0
  0.875000   0.375000 0
CELLS 64 320
4 56 71 58 63
4 27 58 69 63
4 41 69 32 63
4 76 33 68 40
4 27 44 58 37
4 79 31 44 37
4 56 38 68 21
4 56 58 38 37
4 52 32 71 63
4 47 38 31 37
4 76 68 59 21
4 22 59 43 21
4 65 45 33 40
4 47 43 38 21
4 52 71 45 40
4 56 68 71 40
4 74 30 66 23
4 46 66 29 23
4 22 43 30 23
4 72 48 77 34
4 46 53 42 73
4 50 64 53 73
4 70 42 57 73
4 74 66 48 34
4 46 42 66 34
4 47 29 43 23
4 70 77 42 34
4 60 57 64 73
4 79 67 31 75
4 47 31 29 75
4 50 53 67 75
4 46 29 53 75
4 10 78 6 80
4 36 6 1 80
4 15 1 12 80
4 36 4 6 26
4 14 12 78 80
4 2 17 9 26
4 36 18 4 55
4 15 28 1 11
4 62 4 20 55
4 10 6 17 26
4 27 18 44 11
4 62 9 4 26
4 27 69 18 55
4 36 1 18 11
4 41 20 69 55
4 79 44 28 11
4 16 24 54 7
4 19 54 39 7
4 50 39 64 7
4 8 25 61 3
4 60 64 24 7
4 79 28 67 13
4 19 51 61 49
4 8 61 0 49
4 15 51 28 13
4 19 39 51 13
4 50 67 39 13
4 19 61 54 3
4 14 0 12 49
4 5 35 25 3
4 15 12 51 49
4 16 54 35 3
CELL_TYPES 64
8
8
8
8
8
8
8
8
8
8
8
8
8
8
8
8
8
8
8
8
8
8
8
8
8
8
8
8
8
8
8
8
8
8
8
8
8
8
8
8
8
8
8
8
8
8
8
8
8
8
8
8
8
8
8
8
8
8
8
8
8
8
8
8
CELL_DATA 64
VECTORS vector_value float
0.0274451 -0.189686 0
0.170926 -0.360953 0
0.0205924 -0.0902202 0
-0.260728 -2.50776 0
0.104134 -0.188499 0
0.092682 -0.19939 0
-0.330494 -3.37945 0
0.0713977 -0.513409 0
-0.0335398 -0.283995 0
-0.209861 -0.926424 0
-0.15845 -1.65569 0
0.19011 -1.79111 0
0.263772 -2.02729 0
-0.351092 -2.95722 0
0.298692 -3.05222 0
-0.169545 -2.5926 0
-0.35872 -1.24676 0
-0.578009 -2.22752 0
-0.144052 -2.15923 0
0.133525 -0.763959 0
-1.11655 -2.49591 0
-0.39963 -0.280189 0
-0.786215 -1.36238 0
-0.135142 -0.827882 0
-0.467932 -1.96393 0
-0.268678 -1.25489 0
-0.136563 -1.6517 0
-1.65555 -0.991887 0
-0.0457326 -0.254864 0
-0.598311 -2.25961 0
-0.192605 -0.228307 0
-0.0814648 -2.09664 0
-0.0864815 -1.25701 0
0.0599095 -0.501557 0
0.0893687 -0.259064 0
-0.126777 -0.687789 0
0.240517 -1.29265 0
-0.0533549 -0.917251 0
0.122145 -0.470009 0
0.0372348 -0.371366 0
0.0712419 -0.52504 0
-0.0878323 -1.05503 0
0.124874 -0.285182 0
-0.015379 -0.89109 0
0.142695 -0.136177 0
0.103636 -0.219203 0
0.138308 -0.21289 0
0.0530908 -0.202782 0
-0.469265 -1.01408 0
-0.107115 -0.705195 0
-0.209929 -0.126203 0
0.232151 -0.968236 0
-1.03459 -0.436651 0
-0.0563475 -0.137486 0
-0.101904 -0.855322 0
-0.0900611 -0.871777 0
-0.0747405 -0.31478 0
-0.100402 -0.349886 0
-0.195227 -0.123786 0
0.0827065 -0.632458 0
0.042142 -0.795355 0
-0.247346 -0.542022 0
0.150083 -0.823785 0
-0.277776 -1.23732 0
