# vtk DataFile Version 2.0
Unstructured Grid by M++
ASCII
DATASET UNSTRUCTURED_GRID
POINTS 81 float
  1.000000   0.625000 0
  0.750000   0.375000 0
  1.000000   0.000000 0
  0.875000   0.875000 0
  0.750000   0.125000 0
  1.000000   1.000000 0
  0.875000   0.250000 0
  0.625000   0.875000 0
  1.000000   0.750000 0
  0.875000   0.000000 0
  1.000000   0.250000 0
  0.625000   0.375000 0
  0.875000   0.500000 0
  0.625000   0.625000 0
  1.000000   0.500000 0
  0.750000   0.500000 0
  0.750000   1.000000 0
  1.000000   0.125000 0
  0.625000   0.250000 0
  0.750000   0.750000 0
  0.625000   0.000000 0
  0.125000   0.375000 0
  0.000000   0.500000 0
  0.125000   0.625000 0
  0.625000   1.000000 0
  1.000000   0.875000 0
  0.875000   0.125000 0
  0.500000   0.250000 0
  0.625000   0.500000 0
  0.250000   0.625000 0
  0.000000   0.625000 0
  0.375000   0.500000 0
  0.375000   0.000000 0
  0.000000   0.125000 0
  0.125000   0.875000 0
  0.875000   1.000000 0
  0.750000   0.250000 0
  0.375000   0.375000 0
  0.250000   0.375000 0
  0.625000   0.750000 0
  0.125000   0.125000 0
  0.500000   0.000000 0
  0.250000   0.875000 0
  0.125000   0.500000 0
  0.500000   0.375000 0
  0.125000   0.000000 0
  0.250000   0.750000 0
  0.250000   0.500000 0
  0.000000   0.875000 0
  0.875000   0.625000 0
  0.500000   0.750000 0
  0.750000   0.625000 0
  0.250000   0.000000 0
  0.375000   0.750000 0
  0.750000   0.875000 0
  0.625000   0.125000 0
  0.250000   0.250000 0
  0.375000   1.000000 0
  0.375000   0.250000 0
  0.000000   0.375000 0
  0.500000   1.000000 0
  0.875000   0.750000 0
  0.750000   0.000000 0
  0.375000   0.125000 0
  0.500000   0.875000 0
  0.000000   0.000000 0
  0.125000   0.750000 0
  0.500000   0.625000 0
  0.125000   0.250000 0
  0.500000   0.125000 0
  0.250000   1.000000 0
  0.250000   0.125000 0
  0.000000   1.000000 0
  0.375000   0.875000 0
  0.000000   0.750000 0
  0.375000   0.625000 0
  0.000000   0.250000 0
  0.125000   1.000000 0
  1.000000   0.375000 0
  0.500000   0.500000 0
  0.875000   0.375000 0
CELLS 64 320
4 56 71 58 63
4 27 58 69 63
4 41 69 32 63
4 76 33 68 40
4 27 44 58 37
4 79 31 44 37
4 56 38 68 21
4 56 58 38 37
4 52 32 71 63
4 47 38 31 37
4 76 68 59 21
4 22 59 43 21
4 65 45 33 40
4 47 43 38 21
4 52 71 45 40
4 56 68 71 40
4 74 30 66 23
4 46 66 29 23
4 22 43 30 23
4 72 48 77 34
4 46 53 42 73
4 50 64 53 73
4 70 42 57 73
4 74 66 48 34
4 46 42 66 34
4 47 29 43 23
4 70 77 42 34
4 60 57 64 73
4 79 67 31 75
4 47 31 29 75
4 50 53 67 75
4 46 29 53 75
4 10 78 6 80
4 36 6 1 80
4 15 1 12 80
4 36 4 6 26
4 14 12 78 80
4 2 17 9 26
4 36 18 4 55
4 15 28 1 11
4 62 4 20 55
4 10 6 17 26
4 27 18 44 11
4 62 9 4 26
4 27 69 18 55
4 36 1 18 11
4 41 20 69 55
4 79 44 28 11
4 16 24 54 7
4 19 54 39 7
4 50 39 64 7
4 8 25 61 3
4 60 64 24 7
4 79 28 67 13
4 19 51 61 49
4 8 61 0 49
4 15 51 28 13
4 19 39 51 13
4 50 67 39 13
4 19 61 54 3
4 14 0 12 49
4 5 35 25 3
4 15 12 51 49
4 16 54 35 3
CELL_TYPES 64
8
8
8
8
8
8
8
8
8
8
8
8
8
8
8
8
8
8
8
8
8
8
8
8
8
8
8
8
8
8
8
8
8
8
8
8
8
8
8
8
8
8
8
8
8
8
8
8
8
8
8
8
8
8
8
8
8
8
8
8
8
8
8
8
CELL_DATA 64
VECTORS vector_value float
0.0132709 -0.602789 0
-0.0235839 -2.52264 0
0.136512 -2.08024 0
0.11517 -0.212077 0
0.112476 -2.37155 0
0.736292 -2.30763 0
0.0405642 -0.0830481 0
0.173289 -0.248477 0
0.0452692 -0.742662 0
0.833617 -0.222414 0
0.0525503 -0.403729 0
0.100421 -0.526825 0
0.0102275 -0.075346 0
0.466676 -0.523084 0
0.0425583 -0.0868429 0
0.26557 -0.106351 0
0.218167 -1.57897 0
0.524161 -0.911378 0
0.356586 -0.949012 0
-0.446135 -1.56758 0
-0.070599 -0.48785 0
-0.0884629 -0.782561 0
-0.387 -0.666646 0
0.0570439 -2.20214 0
-0.0028272 -0.490547 0
0.907672 -0.971491 0
-0.856048 -0.829323 0
-0.073547 -1.04884 0
0.619915 -1.32018 0
0.877346 -0.475487 0
0.15818 -0.740207 0
0.488831 -0.802479 0
0.0953456 -0.438553 0
0.167006 -0.0880273 0
0.0553641 -0.10488 0
0.0369638 -0.113254 0
0.0448713 -0.290484 0
-0.0148548 -0.420831 0
0.14426 -0.715805 0
-0.0506067 -0.967038 0
0.345509 -1.42362 0
-0.0290361 -0.536899 0
0.00583141 -3.7111 0
-0.0560735 -0.238699 0
0.256676 -3.19018 0
0.0842789 -0.655522 0
0.401566 -2.93176 0
0.0982666 -3.05764 0
-0.617311 -1.09221 0
-0.484121 -1.48297 0
-0.161319 -1.79014 0
-0.0495183 -0.298428 0
-0.260335 -1.13936 0
-0.166104 -2.82213 0
-0.0788057 -0.303715 0
-0.0197747 -0.236225 0
-0.245531 -1.01829 0
-0.247553 -1.61176 0
-0.0586248 -1.81527 0
-0.2292 -0.465361 0
0.00295568 -0.209598 0
-0.322049 -0.574761 0
-0.0218651 -0.233818 0
-0.842554 -1.08127 0
