# vtk DataFile Version 2.0
Unstructured Grid by M++
ASCII
DATASET UNSTRUCTURED_GRID
POINTS 81 float
  1.000000   0.625000 0
  0.750000   0.375000 0
  1.000000   0.000000 0
  0.875000   0.875000 0
  0.750000   0.125000 0
  1.000000   1.000000 0
  0.875000   0.250000 0
  0.625000   0.875000 0
  1.000000   0.750000 0
  0.875000   0.000000 0
  1.000000   0.250000 0
  0.625000   0.375000 0
  0.875000   0.500000 0
  0.625000   0.625000 0
  1.000000   0.500000 0
  0.750000   0.500000 0
  0.750000   1.000000 0
  1.000000   0.125000 0
  0.625000   0.250000 0
  0.750000   0.750000 0
  0.625000   0.000000 0
  0.125000   0.375000 0
  0.000000   0.500000 0
  0.125000   0.625000 0
  0.625000   1.000000 0
  1.000000   0.875000 0
  0.875000   0.125000 0
  0.500000   0.250000 0
  0.625000   0.500000 0
  0.250000   0.625000 0
  0.000000   0.625000 0
  0.375000   0.500000 0
  0.375000   0.000000 0
  0.000000   0.125000 0
  0.125000   0.875000 0
  0.875000   1.000000 0
  0.750000   0.250000 0
  0.375000   0.375000 0
  0.250000   0.375000 0
  0.625000   0.750000 0
  0.125000   0.125000 0
  0.500000   0.000000 0
  0.250000   0.875000 0
  0.125000   0.500000 0
  0.500000   0.375000 0
  0.125000   0.000000 0
  0.250000   0.750000 0
  0.250000   0.500000 0
  0.000000   0.875000 0
  0.875000   0.625000 0
  0.500000   0.750000 0
  0.750000   0.625000 0
  0.250000   0.000000 0
  0.375000   0.750000 0
  0.750000   0.875000 0
  0.625000   0.125000 0
  0.250000   0.250000 0
  0.375000   1.000000 0
  0.375000   0.250000 0
  0.000000   0.375000 0
  0.500000   1.000000 0
  0.875000   0.750000 0
  0.750000   0.000000 0
  0.375000   0.125000 0
  0.500000   0.875000 0
  0.000000   0.000000 0
  0.125000   0.750000 0
  0.500000   0.625000 0
  0.125000   0.250000 0
  0.500000   0.125000 0
  0.250000   1.000000 0
  0.250000   0.125000 0
  0.000000   1.000000 0
  0.375000   0.875000 0
  0.000000   0.750000 0
  0.375000   0.625000 0
  0.000000   0.250000 0
  0.125000   1.000000 0
  1.000000   0.375000 0
  0.500000   0.500000 0
  0.875000   0.375000 0
CELLS 64 320
4 56 71 58 63
4 27 58 69 63
4 41 69 32 63
4 76 33 68 40
4 27 44 58 37
4 79 31 44 37
4 56 38 68 21
4 56 58 38 37
4 52 32 71 63
4 47 38 31 37
4 76 68 59 21
4 22 59 43 21
4 65 45 33 40
4 47 43 38 21
4 52 71 45 40
4 56 68 71 40
4 74 30 66 23
4 46 66 29 23
4 22 43 30 23
4 72 48 77 34
4 46 53 42 73
4 50 64 53 73
4 70 42 57 73
4 74 66 48 34
4 46 42 66 34
4 47 29 43 23
4 70 77 42 34
4 60 57 64 73
4 79 67 31 75
4 47 31 29 75
4 50 53 67 75
4 46 29 53 75
4 10 78 6 80
4 36 6 1 80
4 15 1 12 80
4 36 4 6 26
4 14 12 78 80
4 2 17 9 26
4 36 18 4 55
4 15 28 1 11
4 62 4 20 55
4 10 6 17 26
4 27 18 44 11
4 62 9 4 26
4 27 69 18 55
4 36 1 18 11
4 41 20 69 55
4 79 44 28 11
4 16 24 54 7
4 19 54 39 7
4 50 39 64 7
4 8 25 61 3
4 60 64 24 7
4 79 28 67 13
4 19 51 61 49
4 8 61 0 49
4 15 51 28 13
4 19 39 51 13
4 50 67 39 13
4 19 61 54 3
4 14 0 12 49
4 5 35 25 3
4 15 12 51 49
4 16 54 35 3
CELL_TYPES 64
8
8
8
8
8
8
8
8
8
8
8
8
8
8
8
8
8
8
8
8
8
8
8
8
8
8
8
8
8
8
8
8
8
8
8
8
8
8
8
8
8
8
8
8
8
8
8
8
8
8
8
8
8
8
8
8
8
8
8
8
8
8
8
8
CELL_DATA 64
VECTORS vector_value float
0.368662 -1.66373 0
-0.960401 -2.75317 0
-0.574147 -3.13964 0
0.0570276 -0.175901 0
-0.0140778 -0.115062 0
0.00217067 -0.112293 0
0.167008 -0.48382 0
0.305349 -2.03647 0
-0.416716 -2.15819 0
-0.0468966 -1.42431 0
0.376086 -0.925116 0
-0.38136 -0.752924 0
0.0432047 -0.0753586 0
-0.244851 -1.25508 0
-0.0880411 -1.14361 0
0.48924 -0.952422 0
0.0255426 -0.495545 0
0.00246099 -0.421961 0
0.0205652 -0.252768 0
0.322435 -0.481849 0
-0.0692974 -1.1755 0
-0.089748 -0.191746 0
-0.104964 -1.43136 0
0.00602083 -0.262554 0
0.27319 -1.85428 0
-0.204662 -1.28524 0
0.44382 -1.20485 0
0.131395 -0.47232 0
0.00630461 -0.0940384 0
-0.129917 -1.91451 0
-0.0441615 -0.0758223 0
0.226267 -2.54483 0
0.0414513 -0.15978 0
0.141391 -1.19144 0
-1.36946 -2.69542 0
0.111998 -0.386476 0
-0.0678538 -0.176196 0
-0.00220729 -0.999617 0
-0.0859314 -0.248574 0
-1.14114 -1.56524 0
-0.00546044 -0.020117 0
0.385924 -0.877711 0
-1.52094 -1.11203 0
0.0464588 -0.325727 0
-1.41497 -0.942011 0
-1.69006 -1.97628 0
-0.106509 -0.137747 0
-0.00798572 -0.0185435 0
0.277247 -0.329907 0
1.20047 -0.403284 0
0.369518 -0.856508 0
0.259941 -1.0216 0
0.479643 -1.69335 0
0.00554786 -0.0149873 0
0.199174 -2.67232 0
0.0181885 -1.35294 0
0.0210643 -0.322458 0
0.258312 -0.284243 0
0.092275 -0.152342 0
0.872279 -2.23453 0
-0.490213 -1.04257 0
-0.14579 -0.74695 0
-0.442984 -3.07343 0
0.11137 -1.63942 0
