# vtk DataFile Version 2.0
Unstructured Grid by M++
ASCII
DATASET UNSTRUCTURED_GRID
POINTS 289 float
  0.562500   1.000000 0
  0.562500   0.625000 0
  0.625000   1.000000 0
  0.562500   0.937500 0
  0.562500   0.562500 0
  0.625000   0.937500 0
  0.562500   0.875000 0
  0.625000   0.750000 0
  0.625000   0.625000 0
  0.562500   0.812500 0
  0.562500   0.750000 0
  0.562500   0.687500 0
  0.625000   0.875000 0
  0.625000   0.812500 0
  0.625000   0.687500 0
  0.687500   0.125000 0
  0.875000   0.062500 0
  0.625000   0.125000 0
  0.625000   0.187500 0
  0.625000   0.250000 0
  0.812500   0.187500 0
  1.000000   0.125000 0
  0.687500   0.187500 0
  0.750000   0.125000 0
  0.937500   0.062500 0
  0.937500   0.125000 0
  0.750000   0.187500 0
  0.812500   0.062500 0
  0.812500   0.125000 0
  0.875000   0.687500 0
  0.187500   0.250000 0
  0.437500   0.250000 0
  0.375000   0.187500 0
  0.812500   0.625000 0
  0.125000   0.187500 0
  0.937500   0.750000 0
  0.250000   0.312500 0
  0.500000   0.312500 0
  0.625000   0.062500 0
  0.437500   0.500000 0
  0.375000   0.125000 0
  0.437500   0.187500 0
  0.437500   0.437500 0
  0.437500   0.375000 0
  0.875000   0.875000 0
  0.187500   0.375000 0
  0.687500   0.562500 0
  0.687500   0.625000 0
  0.000000   0.125000 0
  0.937500   0.625000 0
  0.250000   0.125000 0
  0.375000   0.062500 0
  0.375000   0.000000 0
  0.812500   0.500000 0
  0.125000   0.000000 0
  0.937500   0.937500 0
  0.250000   0.437500 0
  0.687500   0.875000 0
  0.687500   0.937500 0
  0.000000   0.437500 0
  0.500000   0.500000 0
  0.500000   0.437500 0
  0.750000   0.937500 0
  0.750000   1.000000 0
  0.062500   0.500000 0
  1.000000   1.000000 0
  0.312500   0.500000 0
  0.875000   0.562500 0
  0.187500   0.062500 0
  0.437500   0.125000 0
  0.437500   0.062500 0
  0.500000   0.375000 0
  0.937500   0.812500 0
  0.937500   0.875000 0
  0.250000   0.375000 0
  0.687500   0.812500 0
  0.000000   0.375000 0
  0.750000   0.562500 0
  0.062500   0.125000 0
  1.000000   0.562500 0
  1.000000   0.625000 0
  0.312500   0.125000 0
  0.562500   0.125000 0
  0.437500   0.000000 0
  0.875000   0.437500 0
  0.875000   0.500000 0
  0.187500   0.000000 0
  0.937500   0.562500 0
  0.937500   0.500000 0
  0.250000   0.062500 0
  0.687500   0.500000 0
  0.000000   0.062500 0
  0.500000   0.062500 0
  1.000000   0.875000 0
  1.000000   0.937500 0
  0.312500   0.437500 0
  0.750000   0.875000 0
  0.062500   0.437500 0
  0.812500   0.937500 0
  0.125000   0.500000 0
  0.375000   0.500000 0
  0.625000   0.562500 0
  0.625000   0.500000 0
  0.437500   0.312500 0
  0.875000   0.812500 0
  0.875000   0.750000 0
  0.187500   0.312500 0
  0.812500   0.687500 0
  0.812500   0.750000 0
  0.125000   0.250000 0
  0.375000   0.250000 0
  1.000000   0.687500 0
  0.312500   0.187500 0
  0.750000   0.687500 0
  0.750000   0.625000 0
  0.062500   0.187500 0
  0.562500   0.250000 0
  0.562500   0.187500 0
  0.375000   1.000000 0
  0.500000   0.562500 0
  0.500000   0.250000 0
  0.750000   0.250000 0
  0.500000   0.125000 0
  0.500000   0.187500 0
  1.000000   0.187500 0
  0.625000   0.375000 0
  0.875000   0.375000 0
  1.000000   0.437500 0
  0.312500   0.000000 0
  0.562500   0.000000 0
  0.812500   0.000000 0
  0.250000   0.687500 0
  0.000000   0.687500 0
  0.500000   1.000000 0
  0.250000   1.000000 0
  0.000000   1.000000 0
  0.437500   0.687500 0
  0.437500   0.625000 0
  0.187500   0.625000 0
  0.687500   0.750000 0
  0.000000   0.312500 0
  0.000000   0.250000 0
  0.375000   0.375000 0
  0.375000   0.312500 0
  0.812500   0.812500 0
  0.125000   0.312500 0
  0.875000   0.625000 0
  0.187500   0.187500 0
  0.187500   0.125000 0
  0.937500   1.000000 0
  0.250000   0.562500 0
  0.250000   0.500000 0
  0.687500   1.000000 0
  0.000000   0.500000 0
  0.687500   0.687500 0
  0.000000   0.187500 0
  0.937500   0.687500 0
  0.250000   0.250000 0
  0.250000   0.187500 0
  0.187500   0.687500 0
  0.000000   0.750000 0
  0.250000   0.750000 0
  0.125000   0.625000 0
  0.750000   0.750000 0
  0.062500   0.250000 0
  0.875000   0.937500 0
  0.187500   0.500000 0
  0.187500   0.437500 0
  0.812500   0.562500 0
  0.125000   0.125000 0
  0.125000   0.062500 0
  0.375000   0.625000 0
  0.375000   0.687500 0
  1.000000   0.750000 0
  0.312500   0.250000 0
  0.312500   0.312500 0
  0.812500   0.312500 0
  0.562500   0.312500 0
  0.375000   0.750000 0
  0.500000   0.625000 0
  0.250000   0.625000 0
  0.312500   0.687500 0
  0.750000   0.812500 0
  0.062500   0.312500 0
  0.062500   0.375000 0
  1.000000   0.812500 0
  0.312500   0.375000 0
  0.562500   0.375000 0
  0.687500   0.437500 0
  0.000000   0.000000 0
  0.500000   0.000000 0
  0.937500   0.437500 0
  0.250000   0.000000 0
  0.375000   0.437500 0
  0.812500   0.875000 0
  0.125000   0.375000 0
  0.125000   0.437500 0
  0.625000   0.437500 0
  1.000000   0.500000 0
  0.312500   0.062500 0
  0.750000   0.500000 0
  0.062500   0.000000 0
  0.062500   0.062500 0
  0.562500   0.062500 0
  0.062500   0.750000 0
  0.312500   0.750000 0
  0.312500   0.625000 0
  0.312500   0.562500 0
  0.062500   0.562500 0
  0.187500   1.000000 0
  0.437500   0.562500 0
  0.875000   1.000000 0
  0.187500   0.562500 0
  0.500000   0.937500 0
  0.250000   0.937500 0
  0.312500   1.000000 0
  0.125000   0.750000 0
  0.125000   0.687500 0
  1.000000   0.000000 0
  0.000000   0.937500 0
  0.000000   0.875000 0
  0.875000   0.125000 0
  0.875000   0.187500 0
  0.062500   0.812500 0
  0.312500   0.812500 0
  0.000000   0.812500 0
  0.000000   0.625000 0
  0.000000   0.562500 0
  0.062500   1.000000 0
  0.062500   0.937500 0
  0.937500   0.187500 0
  0.937500   0.250000 0
  0.062500   0.687500 0
  0.062500   0.625000 0
  0.125000   1.000000 0
  1.000000   0.250000 0
  1.000000   0.312500 0
  0.062500   0.875000 0
  0.125000   0.812500 0
  0.375000   0.812500 0
  0.125000   0.875000 0
  0.375000   0.937500 0
  0.375000   0.875000 0
  0.187500   0.750000 0
  0.187500   0.812500 0
  0.437500   0.812500 0
  0.187500   0.875000 0
  0.437500   0.875000 0
  0.375000   0.562500 0
  0.812500   1.000000 0
  0.125000   0.562500 0
  0.437500   1.000000 0
  0.437500   0.937500 0
  0.187500   0.937500 0
  0.125000   0.937500 0
  0.500000   0.687500 0
  0.500000   0.750000 0
  0.500000   0.812500 0
  0.250000   0.812500 0
  0.250000   0.875000 0
  0.500000   0.875000 0
  0.437500   0.750000 0
  0.312500   0.875000 0
  0.312500   0.937500 0
  0.687500   0.250000 0
  0.687500   0.312500 0
  0.937500   0.312500 0
  0.875000   0.250000 0
  0.625000   0.000000 0
  0.875000   0.000000 0
  0.687500   0.375000 0
  0.937500   0.375000 0
  0.875000   0.312500 0
  0.625000   0.312500 0
  0.687500   0.000000 0
  0.937500   0.000000 0
  0.750000   0.312500 0
  0.750000   0.375000 0
  1.000000   0.375000 0
  0.812500   0.250000 0
  0.562500   0.437500 0
  0.562500   0.500000 0
  0.687500   0.062500 0
  0.750000   0.437500 0
  0.750000   0.000000 0
  0.750000   0.062500 0
  1.000000   0.062500 0
  0.812500   0.375000 0
  0.812500   0.437500 0
CELLS 256 1280
4 169 170 148 68
4 151 166 56 167
4 195 45 196 167
4 54 170 201 202
4 109 34 30 147
4 40 32 81 112
4 192 89 86 68
4 48 91 78 202
4 99 64 196 97
4 71 43 37 103
4 74 186 56 95
4 109 164 34 115
4 50 81 158 112
4 122 69 92 70
4 195 145 45 106
4 110 143 174 175
4 157 30 158 147
4 40 69 32 41
4 50 158 148 147
4 141 155 164 115
4 122 123 69 41
4 142 186 143 175
4 60 39 61 42
4 40 51 69 70
4 120 31 123 41
4 157 174 36 175
4 50 148 89 68
4 48 78 155 115
4 52 83 51 70
4 151 56 66 95
4 71 61 43 42
4 169 148 34 147
4 100 193 39 42
4 40 81 51 199
4 110 174 32 112
4 109 30 145 106
4 100 66 193 95
4 169 34 78 115
4 190 92 83 70
4 50 89 81 199
4 54 86 170 68
4 74 56 45 167
4 142 143 43 103
4 153 59 64 97
4 99 196 166 167
4 169 78 170 202
4 142 193 186 95
4 192 128 89 199
4 74 45 36 106
4 110 31 143 103
4 76 184 59 97
4 142 43 193 42
4 52 51 128 199
4 189 201 91 202
4 120 37 31 103
4 74 36 186 175
4 195 196 184 97
4 141 164 140 183
4 157 158 174 112
4 109 145 164 183
4 195 184 145 183
4 110 32 31 41
4 157 36 30 106
4 76 140 184 183
4 171 172 206 181
4 178 172 261 136
4 256 261 255 136
4 256 257 261 245
4 180 150 206 207
4 60 119 39 210
4 118 215 241 263
4 178 205 172 181
4 216 243 238 244
4 162 217 233 232
4 180 206 131 181
4 179 137 119 210
4 216 204 217 232
4 220 237 219 229
4 216 217 243 159
4 259 258 262 224
4 240 254 237 229
4 153 64 227 208
4 161 205 258 224
4 240 237 238 223
4 226 227 233 208
4 234 228 254 229
4 171 248 137 210
4 160 132 204 232
4 180 131 138 159
4 133 251 213 252
4 171 206 248 207
4 162 138 217 159
4 161 258 243 244
4 220 225 237 223
4 151 150 166 212
4 260 247 257 245
4 259 262 214 263
4 151 66 150 207
4 234 254 209 253
4 162 233 250 208
4 242 241 262 263
4 171 137 172 136
4 161 243 131 159
4 160 204 225 223
4 161 131 205 181
4 179 255 137 136
4 216 238 204 223
4 100 39 248 210
4 260 213 247 252
4 226 233 132 232
4 134 214 215 263
4 180 138 150 212
4 178 261 239 245
4 259 246 258 244
4 178 239 205 224
4 240 238 246 244
4 242 262 239 224
4 99 250 64 208
4 240 246 254 253
4 242 239 247 245
4 135 219 228 229
4 99 166 250 212
4 259 214 246 253
4 118 241 251 252
4 100 248 66 207
4 134 209 214 253
4 162 250 138 212
4 242 247 241 252
4 71 187 61 280
4 102 281 197 280
4 122 92 82 203
4 17 18 82 117
4 122 82 123 117
4 19 264 273 265
4 267 279 222 20
4 125 273 270 265
4 267 272 279 176
4 19 116 18 117
4 21 25 286 24
4 23 28 26 20
4 23 285 28 27
4 218 286 275 24
4 85 53 84 288
4 235 236 231 266
4 221 222 28 20
4 267 222 231 230
4 268 38 129 203
4 125 270 197 188
4 126 287 272 176
4 277 270 276 265
4 267 231 272 266
4 125 197 187 280
4 190 129 92 203
4 277 276 287 176
4 19 18 264 22
4 17 82 38 203
4 102 197 90 188
4 126 84 287 288
4 284 130 285 27
4 121 276 264 265
4 71 37 187 177
4 120 123 116 117
4 198 88 127 191
4 221 16 25 24
4 23 26 15 22
4 121 279 276 176
4 235 231 124 230
4 125 187 273 177
4 278 271 236 266
4 277 287 283 288
4 284 285 274 282
4 278 127 271 191
4 269 275 16 24
4 200 283 53 288
4 23 15 285 282
4 121 26 279 20
4 21 124 25 230
4 19 273 116 177
4 200 90 283 188
4 126 271 84 191
4 269 16 130 27
4 17 38 15 282
4 221 25 222 230
4 121 264 26 22
4 120 116 37 177
4 60 61 281 280
4 277 283 270 188
4 126 272 271 266
4 268 274 38 282
4 85 84 88 191
4 17 15 18 22
4 221 28 16 27
4 93 94 73 55
4 85 88 67 87
4 80 49 79 87
4 44 104 73 72
4 146 33 67 168
4 211 165 149 55
4 8 47 14 154
4 105 104 108 144
4 105 108 29 107
4 7 139 13 75
4 44 165 194 98
4 200 53 77 168
4 8 1 101 4
4 2 5 152 58
4 260 6 213 3
4 105 35 104 72
4 96 57 182 75
4 7 14 139 154
4 146 29 33 107
4 7 13 10 9
4 12 13 57 75
4 85 67 53 168
4 44 73 165 55
4 63 152 62 58
4 8 101 47 46
4 96 182 194 144
4 60 281 119 4
4 12 5 6 3
4 173 185 35 72
4 65 149 94 55
4 146 67 49 87
4 114 113 47 154
4 163 108 182 144
4 12 6 13 9
4 173 35 111 156
4 163 182 139 75
4 260 257 6 9
4 105 29 35 156
4 163 139 113 154
4 256 10 257 9
4 146 49 29 156
4 163 113 108 107
4 80 111 49 156
4 102 101 281 4
4 12 57 5 58
4 44 194 104 144
4 96 194 62 98
4 2 0 5 3
4 93 73 185 72
4 179 119 1 4
4 200 77 90 46
4 114 33 113 107
4 7 10 14 11
4 96 62 57 58
4 133 213 0 3
4 102 90 101 46
4 256 255 10 11
4 63 62 249 98
4 114 47 77 46
4 179 1 255 11
4 211 249 165 98
4 114 77 33 168
4 198 79 88 87
4 8 14 1 11
CELL_TYPES 256
8
8
8
8
8
8
8
8
8
8
8
8
8
8
8
8
8
8
8
8
8
8
8
8
8
8
8
8
8
8
8
8
8
8
8
8
8
8
8
8
8
8
8
8
8
8
8
8
8
8
8
8
8
8
8
8
8
8
8
8
8
8
8
8
8
8
8
8
8
8
8
8
8
8
8
8
8
8
8
8
8
8
8
8
8
8
8
8
8
8
8
8
8
8
8
8
8
8
8
8
8
8
8
8
8
8
8
8
8
8
8
8
8
8
8
8
8
8
8
8
8
8
8
8
8
8
8
8
8
8
8
8
8
8
8
8
8
8
8
8
8
8
8
8
8
8
8
8
8
8
8
8
8
8
8
8
8
8
8
8
8
8
8
8
8
8
8
8
8
8
8
8
8
8
8
8
8
8
8
8
8
8
8
8
8
8
8
8
8
8
8
8
8
8
8
8
8
8
8
8
8
8
8
8
8
8
8
8
8
8
8
8
8
8
8
8
8
8
8
8
8
8
8
8
8
8
8
8
8
8
8
8
8
8
8
8
8
8
8
8
8
8
8
8
8
8
8
8
8
8
8
8
8
8
8
8
CELL_DATA 256
VECTORS vector_value float
0.209916 -0.969422 0
-0.0288524 -0.188356 0
-0.0127966 -0.623314 0
0.0458326 -0.541332 0
-0.181869 -0.74135 0
0.0501904 -0.785546 0
0.175141 -1.13153 0
0.0248223 -0.888387 0
-0.142494 -0.88047 0
-0.139388 -1.06729 0
-0.160517 -0.332872 0
-0.0608316 -0.763053 0
-0.0941424 -0.697541 0
-0.118259 -1.44523 0
0.0105151 -0.622276 0
-0.239607 -1.55013 0
-0.279148 -0.823586 0
0.223614 -0.928432 0
-0.113871 -0.845313 0
-0.0072609 -0.821895 0
0.184681 -1.46605 0
-0.754464 -1.59959 0
-0.222317 -2.15381 0
-0.189092 -0.924394 0
0.240861 -1.35419 0
-0.392543 -1.10118 0
0.0841509 -0.91306 0
-0.0231997 -0.863747 0
-0.127985 -0.933128 0
-0.0594886 -0.194289 0
-0.336943 -1.42359 0
-0.0490249 -0.856222 0
-0.549661 -2.12126 0
-0.136507 -0.698724 0
0.138372 -1.21491 0
-0.0953387 -0.592909 0
-0.244048 -0.622263 0
-0.0136138 -0.802508 0
-0.0420471 -1.18207 0
-0.048291 -0.734151 0
0.127185 -0.819749 0
-0.0218042 -0.244155 0
-0.439042 -1.37428 0
-0.0950615 -0.456508 0
-0.0846983 -0.756076 0
0.126746 -0.646855 0
-0.709698 -1.22415 0
-0.04126 -1.06321 0
-0.0871365 -0.398231 0
-0.00348018 -0.990723 0
-0.0691631 -0.585858 0
-0.855633 -1.9458 0
-0.164621 -0.740318 0
0.0126831 -0.812612 0
0.00606175 -1.06551 0
-0.513837 -0.894709 0
-0.102551 -0.8786 0
-0.0182617 -0.818713 0
-0.176386 -0.851787 0
-0.0542216 -0.667276 0
-0.0594562 -0.688989 0
0.322149 -0.865844 0
-0.270116 -0.685784 0
-0.0654059 -0.741448 0
0.701912 -0.853334 0
0.68064 -1.27837 0
0.331472 -1.34815 0
0.573699 -1.28037 0
0.11451 -0.254763 0
-0.0464178 -2.60624 0
0.0274811 -0.962482 0
0.744699 -0.974804 0
0.472017 -0.515611 0
0.198478 -0.512172 0
0.420727 -0.545493 0
0.14328 -2.37926 0
0.392349 -0.468952 0
-0.105932 -1.82754 0
0.376156 -0.620366 0
0.369214 -1.20871 0
-0.0678366 -0.628374 0
-0.00237147 -0.29558 0
0.507552 -1.14317 0
0.21539 -0.571955 0
0.0468448 -0.367428 0
-0.55648 -0.886249 0
0.421109 -1.85196 0
0.200162 -0.989348 0
0.132707 -0.573253 0
-0.30002 -1.18564 0
0.353915 -0.642911 0
0.0788418 -0.716561 0
0.395794 -0.751644 0
0.120562 -1.78183 0
-0.041443 -0.252403 0
0.322869 -1.08556 0
0.149545 -1.05319 0
0.00768307 -0.154092 0
-0.301241 -0.93875 0
0.0588736 -0.751242 0
-0.00703813 -1.03227 0
0.657675 -1.5722 0
0.385701 -0.734181 0
0.230679 -1.40508 0
0.595697 -0.918835 0
0.234018 -1.9524 0
0.520166 -0.554155 0
-0.0191512 -1.90859 0
0.0285316 -1.07594 0
0.160705 -0.646373 0
-0.0221648 -0.847436 0
-0.0170161 -0.3547 0
0.538239 -0.918532 0
0.357721 -0.827468 0
0.657687 -1.18648 0
0.225514 -0.422316 0
0.290786 -1.1635 0
-0.0759896 -0.930422 0
0.138599 -0.664021 0
0.382778 -1.14612 0
-0.313995 -1.374 0
-0.0980189 -0.794535 0
0.23286 -0.814671 0
-0.0872584 -1.1096 0
0.0249127 -0.494247 0
-0.114955 -0.921318 0
-0.0583775 -0.809021 0
-0.0515476 -1.27906 0
0.0661942 -1.07307 0
0.138482 -0.640989 0
0.0909919 -2.06989 0
-0.305784 -1.139 0
-0.0533363 -2.0691 0
-0.381838 -0.962639 0
0.455209 -1.5301 0
-0.178267 -0.995018 0
0.2956 -1.64187 0
-0.517556 -1.11028 0
0.168506 -1.53661 0
-0.0467031 -0.625678 0
-0.0601333 -0.417451 0
0.0613496 -1.7802 0
-0.147134 -1.48702 0
0.0792622 -0.839463 0
0.199892 -0.944458 0
0.313724 -1.5704 0
0.0520993 -1.41196 0
-0.0823049 -0.929726 0
0.340618 -1.66748 0
-0.0953057 -1.24369 0
0.236119 -1.25758 0
0.0732881 -0.746096 0
0.0279531 -1.88137 0
0.176503 -1.20362 0
-0.330158 -0.563385 0
0.0878624 -1.29414 0
0.0903281 -0.758728 0
0.344604 -1.65283 0
-0.0306289 -0.347861 0
-0.0337921 -0.880899 0
-0.107799 -0.836496 0
-0.199391 -1.4837 0
-0.0586795 -0.501783 0
0.19146 -1.78099 0
-0.222212 -0.386916 0
0.210622 -1.02237 0
0.0516464 -0.909134 0
-0.154363 -0.918009 0
0.103475 -0.62122 0
0.149648 -1.78983 0
-0.0426908 -0.312631 0
0.0262581 -0.45311 0
0.067901 -1.59888 0
0.056842 -1.8685 0
-0.139335 -0.289018 0
0.0913795 -0.882608 0
0.17921 -1.13721 0
-0.294273 -0.919181 0
0.0787286 -1.46597 0
0.158938 -0.90021 0
0.00533198 -0.764855 0
-0.112299 -0.537709 0
0.453067 -2.03871 0
-0.134273 -0.513771 0
-0.13209 -1.00377 0
0.124016 -1.09719 0
-0.102431 -1.19679 0
0.293171 -1.12766 0
0.0098053 -0.678286 0
-0.1724 -0.806772 0
-0.276167 -0.413567 0
0.0441757 -0.853961 0
0.0826105 -2.00598 0
-0.453781 -0.980247 0
-0.227851 -1.16755 0
0.109794 -0.876178 0
-0.562262 -0.963898 0
0.846441 -1.00804 0
0.32692 -0.94466 0
0.103004 -0.652558 0
0.0593947 -0.669053 0
0.0130227 -0.842871 0
0.191569 -0.515591 0
-0.217754 -1.53047 0
0.130967 -0.916516 0
-0.265125 -0.836786 0
0.0469169 -1.14408 0
0.0853824 -0.798612 0
0.0263546 -0.682313 0
0.14608 -0.947777 0
-0.1886 -0.738264 0
0.177138 -1.06551 0
0.0441986 -0.766272 0
-0.542198 -1.28113 0
0.153616 -0.902069 0
-0.0643367 -0.855091 0
0.257238 -0.65829 0
0.0999781 -0.648114 0
0.106128 -1.21412 0
0.038794 -0.854856 0
0.0457531 -2.28196 0
0.446499 -1.58353 0
-0.675571 -1.41625 0
0.216458 -0.682939 0
0.0666741 -0.51764 0
0.113053 -0.897958 0
-0.138892 -2.17154 0
-0.00990643 -0.675496 0
0.195361 -1.17988 0
-0.0966155 -1.014 0
0.111344 -0.590391 0
0.434891 -1.4103 0
-0.420288 -1.34135 0
0.0851278 -0.467243 0
-0.29403 -1.75969 0
0.267581 -0.734047 0
0.062229 -0.716926 0
0.125707 -0.648937 0
0.216264 -0.729131 0
-0.440045 -0.963281 0
0.0585955 -2.09289 0
-0.00806211 -1.37942 0
0.148147 -1.34242 0
0.0145476 -0.625663 0
0.254656 -1.37993 0
0.140538 -0.7563 0
-0.430397 -1.13481 0
0.321543 -0.676224 0
0.232587 -1.42706 0
0.154622 -0.775654 0
0.263712 -1.04273 0
-0.0539366 -1.33963 0
0.537485 -0.61734 0
-0.154226 -1.04407 0
-0.183387 -0.805216 0
0.0754809 -1.19601 0
