# vtk DataFile Version 2.0
Unstructured Grid by M++
ASCII
DATASET UNSTRUCTURED_GRID
POINTS 81 float
  1.000000   0.625000 0
  0.750000   0.375000 0
  1.000000   0.000000 0
  0.875000   0.875000 0
  0.750000   0.125000 0
  1.000000   1.000000 0
  0.875000   0.250000 0
  0.625000   0.875000 0
  1.000000   0.750000 0
  0.875000   0.000000 0
  1.000000   0.250000 0
  0.625000   0.375000 0
  0.875000   0.500000 0
  0.625000   0.625000 0
  1.000000   0.500000 0
  0.750000   0.500000 0
  0.750000   1.000000 0
  1.000000   0.125000 0
  0.625000   0.250000 0
  0.750000   0.750000 0
  0.625000   0.000000 0
  0.125000   0.375000 0
  0.000000   0.500000 0
  0.125000   0.625000 0
  0.625000   1.000000 0
  1.000000   0.875000 0
  0.875000   0.125000 0
  0.500000   0.250000 0
  0.625000   0.500000 0
  0.250000   0.625000 0
  0.000000   0.625000 0
  0.375000   0.500000 0
  0.375000   0.000000 0
  0.000000   0.125000 0
  0.125000   0.875000 0
  0.875000   1.000000 0
  0.750000   0.250000 0
  0.375000   0.375000 0
  0.250000   0.375000 0
  0.625000   0.750000 0
  0.125000   0.125000 0
  0.500000   0.000000 0
  0.250000   0.875000 0
  0.125000   0.500000 0
  0.500000   0.375000 0
  0.125000   0.000000 0
  0.250000   0.750000 0
  0.250000   0.500000 0
  0.000000   0.875000 0
  0.875000   0.625000 0
  0.500000   0.750000 0
  0.750000   0.625000 0
  0.250000   0.000000 0
  0.375000   0.750000 0
  0.750000   0.875000 0
  0.625000   0.125000 0
  0.250000   0.250000 0
  0.375000   1.000000 0
  0.375000   0.250000 0
  0.000000   0.375000 0
  0.500000   1.000000 0
  0.875000   0.750000 0
  0.750000   0.000000 0
  0.375000   0.125000 0
  0.500000   0.875000 0
  0.000000   0.000000 0
  0.125000   0.750000 0
  0.500000   0.625000 0
  0.125000   0.250000 0
  0.500000   0.125000 0
  0.250000   1.000000 0
  0.250000   0.125000 0
  0.000000   1.000000 0
  0.375000   0.875000 0
  0.000000   0.750000 0
  0.375000   0.625000 0
  0.000000   0.250000 0
  0.125000   1.000000 0
  1.000000   0.375000 0
  0.500000   0.500000 0
  0.875000   0.375000 0
CELLS 64 320
4 56 71 58 63
4 27 58 69 63
4 41 69 32 63
4 76 33 68 40
4 27 44 58 37
4 79 31 44 37
4 56 38 68 21
4 56 58 38 37
4 52 32 71 63
4 47 38 31 37
4 76 68 59 21
4 22 59 43 21
4 65 45 33 40
4 47 43 38 21
4 52 71 45 40
4 56 68 71 40
4 74 30 66 23
4 46 66 29 23
4 22 43 30 23
4 72 48 77 34
4 46 53 42 73
4 50 64 53 73
4 70 42 57 73
4 74 66 48 34
4 46 42 66 34
4 47 29 43 23
4 70 77 42 34
4 60 57 64 73
4 79 67 31 75
4 47 31 29 75
4 50 53 67 75
4 46 29 53 75
4 10 78 6 80
4 36 6 1 80
4 15 1 12 80
4 36 4 6 26
4 14 12 78 80
4 2 17 9 26
4 36 18 4 55
4 15 28 1 11
4 62 4 20 55
4 10 6 17 26
4 27 18 44 11
4 62 9 4 26
4 27 69 18 55
4 36 1 18 11
4 41 20 69 55
4 79 44 28 11
4 16 24 54 7
4 19 54 39 7
4 50 39 64 7
4 8 25 61 3
4 60 64 24 7
4 79 28 67 13
4 19 51 61 49
4 8 61 0 49
4 15 51 28 13
4 19 39 51 13
4 50 67 39 13
4 19 61 54 3
4 14 0 12 49
4 5 35 25 3
4 15 12 51 49
4 16 54 35 3
CELL_TYPES 64
8
8
8
8
8
8
8
8
8
8
8
8
8
8
8
8
8
8
8
8
8
8
8
8
8
8
8
8
8
8
8
8
8
8
8
8
8
8
8
8
8
8
8
8
8
8
8
8
8
8
8
8
8
8
8
8
8
8
8
8
8
8
8
8
CELL_DATA 64
VECTORS vector_value float
-0.330557 -2.65748 0
-0.38723 -2.29769 0
-0.0726872 -2.10549 0
0.0179119 -0.0366285 0
-0.686451 -2.89237 0
-0.4605 -2.98583 0
0.125903 -0.386602 0
-0.327283 -1.94029 0
-0.0627639 -2.98739 0
-0.51135 -1.09557 0
0.0500801 -0.101843 0
0.106813 -0.280863 0
0.00188503 -0.0202499 0
0.0851144 -0.286184 0
-0.00834794 -0.425887 0
0.0310041 -0.368961 0
-0.00374375 -0.439978 0
0.00811942 -0.0547109 0
0.0332039 -0.42074 0
0.229958 -0.717816 0
0.685772 -0.842298 0
0.353535 -1.73163 0
1.0526 -1.20626 0
0.0540811 -0.437949 0
0.262134 -0.306478 0
-0.00140425 -0.102743 0
0.762892 -0.645157 0
0.763717 -1.02904 0
-0.486961 -3.5228 0
-0.0946334 -0.264101 0
-0.0218053 -3.10531 0
0.137923 -0.282443 0
-0.0308664 -0.207682 0
-0.0203952 -0.0212534 0
-0.228163 -0.232507 0
-0.0301434 -0.082364 0
-0.0254193 -0.241744 0
-0.0312565 -0.0831427 0
-0.0115449 -0.263471 0
-0.561301 -1.07374 0
0.37478 -0.566003 0
-0.0135756 -0.142217 0
-0.555971 -1.80217 0
0.0964503 -0.352543 0
0.0262004 -2.15118 0
-0.334333 -0.647796 0
0.050494 -1.4593 0
-0.40142 -1.80356 0
0.054502 -1.24564 0
0.2595 -0.827156 0
-0.020134 -1.45479 0
-0.190613 -1.51596 0
0.372896 -1.39382 0
-0.55795 -1.73207 0
-1.01502 -1.11473 0
-0.34928 -0.903739 0
-0.454091 -0.811794 0
-1.04636 -0.986993 0
-0.674361 -1.1121 0
0.239616 -0.883739 0
-0.126632 -0.451355 0
0.304004 -1.51349 0
-0.448323 -0.694395 0
0.181471 -0.248773 0
