# vtk DataFile Version 2.0
Unstructured Grid by M++
ASCII
DATASET UNSTRUCTURED_GRID
POINTS 81 float
  1.000000   0.625000 0
  0.750000   0.375000 0
  1.000000   0.000000 0
  0.875000   0.875000 0
  0.750000   0.125000 0
  1.000000   1.000000 0
  0.875000   0.250000 0
  0.625000   0.875000 0
  1.000000   0.750000 0
  0.875000   0.000000 0
  1.000000   0.250000 0
  0.625000   0.375000 0
  0.875000   0.500000 0
  0.625000   0.625000 0
  1.000000   0.500000 0
  0.750000   0.500000 0
  0.750000   1.000000 0
  1.000000   0.125000 0
  0.625000   0.250000 0
  0.750000   0.750000 0
  0.625000   0.000000 0
  0.125000   0.375000 0
  0.000000   0.500000 0
  0.125000   0.625000 0
  0.625000   1.000000 0
  1.000000   0.875000 0
  0.875000   0.125000 0
  0.500000   0.250000 0
  0.625000   0.500000 0
  0.250000   0.625000 0
  0.000000   0.625000 0
  0.375000   0.500000 0
  0.375000   0.000000 0
  0.000000   0.125000 0
  0.125000   0.875000 0
  0.875000   1.000000 0
  0.750000   0.250000 0
  0.375000   0.375000 0
  0.250000   0.375000 0
  0.625000   0.750000 0
  0.125000   0.125000 0
  0.500000   0.000000 0
  0.250000   0.875000 0
  0.125000   0.500000 0
  0.500000   0.375000 0
  0.125000   0.000000 0
  0.250000   0.750000 0
  0.250000   0.500000 0
  0.000000   0.875000 0
  0.875000   0.625000 0
  0.500000   0.750000 0
  0.750000   0.625000 0
  0.250000   0.000000 0
  0.375000   0.750000 0
  0.750000   0.875000 0
  0.625000   0.125000 0
  0.250000   0.250000 0
  0.375000   1.000000 0
  0.375000   0.250000 0
  0.000000   0.375000 0
  0.500000   1.000000 0
  0.875000   0.750000 0
  0.750000   0.000000 0
  0.375000   0.125000 0
  0.500000   0.875000 0
  0.000000   0.000000 0
  0.125000   0.750000 0
  0.500000   0.625000 0
  0.125000   0.250000 0
  0.500000   0.125000 0
  0.250000   1.000000 0
  0.250000   0.125000 0
  0.000000   1.000000 0
  0.375000   0.875000 0
  0.000000   0.750000 0
  0.375000   0.625000 0
  0.000000   0.250000 0
  0.125000   1.000000 0
  1.000000   0.375000 0
  0.500000   0.500000 0
  0.875000   0.375000 0
CELLS 64 320
4 56 71 58 63
4 27 58 69 63
4 41 69 32 63
4 76 33 68 40
4 27 44 58 37
4 79 31 44 37
4 56 38 68 21
4 56 58 38 37
4 52 32 71 63
4 47 38 31 37
4 76 68 59 21
4 22 59 43 21
4 65 45 33 40
4 47 43 38 21
4 52 71 45 40
4 56 68 71 40
4 74 30 66 23
4 46 66 29 23
4 22 43 30 23
4 72 48 77 34
4 46 53 42 73
4 50 64 53 73
4 70 42 57 73
4 74 66 48 34
4 46 42 66 34
4 47 29 43 23
4 70 77 42 34
4 60 57 64 73
4 79 67 31 75
4 47 31 29 75
4 50 53 67 75
4 46 29 53 75
4 10 78 6 80
4 36 6 1 80
4 15 1 12 80
4 36 4 6 26
4 14 12 78 80
4 2 17 9 26
4 36 18 4 55
4 15 28 1 11
4 62 4 20 55
4 10 6 17 26
4 27 18 44 11
4 62 9 4 26
4 27 69 18 55
4 36 1 18 11
4 41 20 69 55
4 79 44 28 11
4 16 24 54 7
4 19 54 39 7
4 50 39 64 7
4 8 25 61 3
4 60 64 24 7
4 79 28 67 13
4 19 51 61 49
4 8 61 0 49
4 15 51 28 13
4 19 39 51 13
4 50 67 39 13
4 19 61 54 3
4 14 0 12 49
4 5 35 25 3
4 15 12 51 49
4 16 54 35 3
CELL_TYPES 64
8
8
8
8
8
8
8
8
8
8
8
8
8
8
8
8
8
8
8
8
8
8
8
8
8
8
8
8
8
8
8
8
8
8
8
8
8
8
8
8
8
8
8
8
8
8
8
8
8
8
8
8
8
8
8
8
8
8
8
8
8
8
8
8
CELL_DATA 64
VECTORS vector_value float
-0.349356 -0.330645 0
-1.01294 -2.0545 0
-0.162651 -0.641109 0
-0.529692 -1.14547 0
0.0814891 -1.28072 0
0.425238 -1.62581 0
-0.238141 -0.966647 0
-0.161817 -0.749941 0
-0.937428 -1.3092 0
-0.242795 -1.43071 0
0.00438667 -0.348276 0
0.0313271 -0.38305 0
-0.161613 -1.67845 0
-0.209848 -0.424155 0
-0.355866 -0.594275 0
-0.746697 -0.686733 0
0.0942867 -0.567069 0
0.47655 -0.56739 0
0.0148795 -0.439845 0
-0.00685509 -1.01534 0
0.144624 -0.0374421 0
0.081529 -1.0355 0
0.915981 -0.375567 0
0.18712 -0.947913 0
0.354737 -0.547743 0
0.0084477 -0.074949 0
0.175919 -0.921693 0
1.12743 -0.795823 0
0.528752 -3.61015 0
-0.163299 -1.4459 0
-1.49843 -3.69273 0
0.210529 -0.268014 0
-0.0117155 -1.02825 0
0.418399 -0.660156 0
0.0776755 -0.122718 0
0.348778 -1.6385 0
0.042137 -1.0361 0
0.0152612 -1.05426 0
0.26883 -0.484182 0
0.16782 -0.131168 0
0.23259 -0.865093 0
0.00464608 -1.01674 0
0.293885 -2.20944 0
-0.0023118 -1.67456 0
0.13982 -0.643232 0
1.39933 -0.756571 0
0.0829292 -0.183054 0
1.18043 -2.84629 0
-1.10292 -1.18086 0
-0.327168 -0.33378 0
-1.63307 -4.06635 0
0.185909 -0.295217 0
0.234856 -2.34261 0
0.241001 -1.29496 0
0.026126 -0.183803 0
0.154132 -0.873094 0
0.0334626 -0.0347086 0
0.0281913 -0.0351212 0
-0.340584 -1.81278 0
0.24522 -0.736062 0
0.0160441 -0.935746 0
-0.376739 -0.682494 0
0.064627 -0.163748 0
-0.787357 -0.685612 0
