# vtk DataFile Version 2.0
Unstructured Grid by M++
ASCII
DATASET UNSTRUCTURED_GRID
POINTS 289 float
  0.562500   1.000000 0
  0.562500   0.625000 0
  0.625000   1.000000 0
  0.562500   0.937500 0
  0.562500   0.562500 0
  0.625000   0.937500 0
  0.562500   0.875000 0
  0.625000   0.750000 0
  0.625000   0.625000 0
  0.562500   0.812500 0
  0.562500   0.750000 0
  0.562500   0.687500 0
  0.625000   0.875000 0
  0.625000   0.812500 0
  0.625000   0.687500 0
  0.687500   0.125000 0
  0.875000   0.062500 0
  0.625000   0.125000 0
  0.625000   0.187500 0
  0.625000   0.250000 0
  0.812500   0.187500 0
  1.000000   0.125000 0
  0.687500   0.187500 0
  0.750000   0.125000 0
  0.937500   0.062500 0
  0.937500   0.125000 0
  0.750000   0.187500 0
  0.812500   0.062500 0
  0.812500   0.125000 0
  0.875000   0.687500 0
  0.187500   0.250000 0
  0.437500   0.250000 0
  0.375000   0.187500 0
  0.812500   0.625000 0
  0.125000   0.187500 0
  0.937500   0.750000 0
  0.250000   0.312500 0
  0.500000   0.312500 0
  0.625000   0.062500 0
  0.437500   0.500000 0
  0.375000   0.125000 0
  0.437500   0.187500 0
  0.437500   0.437500 0
  0.437500   0.375000 0
  0.875000   0.875000 0
  0.187500   0.375000 0
  0.687500   0.562500 0
  0.687500   0.625000 0
  0.000000   0.125000 0
  0.937500   0.625000 0
  0.250000   0.125000 0
  0.375000   0.062500 0
  0.375000   0.000000 0
  0.812500   0.500000 0
  0.125000   0.000000 0
  0.937500   0.937500 0
  0.250000   0.437500 0
  0.687500   0.875000 0
  0.687500   0.937500 0
  0.000000   0.437500 0
  0.500000   0.500000 0
  0.500000   0.437500 0
  0.750000   0.937500 0
  0.750000   1.000000 0
  0.062500   0.500000 0
  1.000000   1.000000 0
  0.312500   0.500000 0
  0.875000   0.562500 0
  0.187500   0.062500 0
  0.437500   0.125000 0
  0.437500   0.062500 0
  0.500000   0.375000 0
  0.937500   0.812500 0
  0.937500   0.875000 0
  0.250000   0.375000 0
  0.687500   0.812500 0
  0.000000   0.375000 0
  0.750000   0.562500 0
  0.062500   0.125000 0
  1.000000   0.562500 0
  1.000000   0.625000 0
  0.312500   0.125000 0
  0.562500   0.125000 0
  0.437500   0.000000 0
  0.875000   0.437500 0
  0.875000   0.500000 0
  0.187500   0.000000 0
  0.937500   0.562500 0
  0.937500   0.500000 0
  0.250000   0.062500 0
  0.687500   0.500000 0
  0.000000   0.062500 0
  0.500000   0.062500 0
  1.000000   0.875000 0
  1.000000   0.937500 0
  0.312500   0.437500 0
  0.750000   0.875000 0
  0.062500   0.437500 0
  0.812500   0.937500 0
  0.125000   0.500000 0
  0.375000   0.500000 0
  0.625000   0.562500 0
  0.625000   0.500000 0
  0.437500   0.312500 0
  0.875000   0.812500 0
  0.875000   0.750000 0
  0.187500   0.312500 0
  0.812500   0.687500 0
  0.812500   0.750000 0
  0.125000   0.250000 0
  0.375000   0.250000 0
  1.000000   0.687500 0
  0.312500   0.187500 0
  0.750000   0.687500 0
  0.750000   0.625000 0
  0.062500   0.187500 0
  0.562500   0.250000 0
  0.562500   0.187500 0
  0.375000   1.000000 0
  0.500000   0.562500 0
  0.500000   0.250000 0
  0.750000   0.250000 0
  0.500000   0.125000 0
  0.500000   0.187500 0
  1.000000   0.187500 0
  0.625000   0.375000 0
  0.875000   0.375000 0
  1.000000   0.437500 0
  0.312500   0.000000 0
  0.562500   0.000000 0
  0.812500   0.000000 0
  0.250000   0.687500 0
  0.000000   0.687500 0
  0.500000   1.000000 0
  0.250000   1.000000 0
  0.000000   1.000000 0
  0.437500   0.687500 0
  0.437500   0.625000 0
  0.187500   0.625000 0
  0.687500   0.750000 0
  0.000000   0.312500 0
  0.000000   0.250000 0
  0.375000   0.375000 0
  0.375000   0.312500 0
  0.812500   0.812500 0
  0.125000   0.312500 0
  0.875000   0.625000 0
  0.187500   0.187500 0
  0.187500   0.125000 0
  0.937500   1.000000 0
  0.250000   0.562500 0
  0.250000   0.500000 0
  0.687500   1.000000 0
  0.000000   0.500000 0
  0.687500   0.687500 0
  0.000000   0.187500 0
  0.937500   0.687500 0
  0.250000   0.250000 0
  0.250000   0.187500 0
  0.187500   0.687500 0
  0.000000   0.750000 0
  0.250000   0.750000 0
  0.125000   0.625000 0
  0.750000   0.750000 0
  0.062500   0.250000 0
  0.875000   0.937500 0
  0.187500   0.500000 0
  0.187500   0.437500 0
  0.812500   0.562500 0
  0.125000   0.125000 0
  0.125000   0.062500 0
  0.375000   0.625000 0
  0.375000   0.687500 0
  1.000000   0.750000 0
  0.312500   0.250000 0
  0.312500   0.312500 0
  0.812500   0.312500 0
  0.562500   0.312500 0
  0.375000   0.750000 0
  0.500000   0.625000 0
  0.250000   0.625000 0
  0.312500   0.687500 0
  0.750000   0.812500 0
  0.062500   0.312500 0
  0.062500   0.375000 0
  1.000000   0.812500 0
  0.312500   0.375000 0
  0.562500   0.375000 0
  0.687500   0.437500 0
  0.000000   0.000000 0
  0.500000   0.000000 0
  0.937500   0.437500 0
  0.250000   0.000000 0
  0.375000   0.437500 0
  0.812500   0.875000 0
  0.125000   0.375000 0
  0.125000   0.437500 0
  0.625000   0.437500 0
  1.000000   0.500000 0
  0.312500   0.062500 0
  0.750000   0.500000 0
  0.062500   0.000000 0
  0.062500   0.062500 0
  0.562500   0.062500 0
  0.062500   0.750000 0
  0.312500   0.750000 0
  0.312500   0.625000 0
  0.312500   0.562500 0
  0.062500   0.562500 0
  0.187500   1.000000 0
  0.437500   0.562500 0
  0.875000   1.000000 0
  0.187500   0.562500 0
  0.500000   0.937500 0
  0.250000   0.937500 0
  0.312500   1.000000 0
  0.125000   0.750000 0
  0.125000   0.687500 0
  1.000000   0.000000 0
  0.000000   0.937500 0
  0.000000   0.875000 0
  0.875000   0.125000 0
  0.875000   0.187500 0
  0.062500   0.812500 0
  0.312500   0.812500 0
  0.000000   0.812500 0
  0.000000   0.625000 0
  0.000000   0.562500 0
  0.062500   1.000000 0
  0.062500   0.937500 0
  0.937500   0.187500 0
  0.937500   0.250000 0
  0.062500   0.687500 0
  0.062500   0.625000 0
  0.125000   1.000000 0
  1.000000   0.250000 0
  1.000000   0.312500 0
  0.062500   0.875000 0
  0.125000   0.812500 0
  0.375000   0.812500 0
  0.125000   0.875000 0
  0.375000   0.937500 0
  0.375000   0.875000 0
  0.187500   0.750000 0
  0.187500   0.812500 0
  0.437500   0.812500 0
  0.187500   0.875000 0
  0.437500   0.875000 0
  0.375000   0.562500 0
  0.812500   1.000000 0
  0.125000   0.562500 0
  0.437500   1.000000 0
  0.437500   0.937500 0
  0.187500   0.937500 0
  0.125000   0.937500 0
  0.500000   0.687500 0
  0.500000   0.750000 0
  0.500000   0.812500 0
  0.250000   0.812500 0
  0.250000   0.875000 0
  0.500000   0.875000 0
  0.437500   0.750000 0
  0.312500   0.875000 0
  0.312500   0.937500 0
  0.687500   0.250000 0
  0.687500   0.312500 0
  0.937500   0.312500 0
  0.875000   0.250000 0
  0.625000   0.000000 0
  0.875000   0.000000 0
  0.687500   0.375000 0
  0.937500   0.375000 0
  0.875000   0.312500 0
  0.625000   0.312500 0
  0.687500   0.000000 0
  0.937500   0.000000 0
  0.750000   0.312500 0
  0.750000   0.375000 0
  1.000000   0.375000 0
  0.812500   0.250000 0
  0.562500   0.437500 0
  0.562500   0.500000 0
  0.687500   0.062500 0
  0.750000   0.437500 0
  0.750000   0.000000 0
  0.750000   0.062500 0
  1.000000   0.062500 0
  0.812500   0.375000 0
  0.812500   0.437500 0
CELLS 256 1280
4 169 170 148 68
4 151 166 56 167
4 195 45 196 167
4 54 170 201 202
4 109 34 30 147
4 40 32 81 112
4 192 89 86 68
4 48 91 78 202
4 99 64 196 97
4 71 43 37 103
4 74 186 56 95
4 109 164 34 115
4 50 81 158 112
4 122 69 92 70
4 195 145 45 106
4 110 143 174 175
4 157 30 158 147
4 40 69 32 41
4 50 158 148 147
4 141 155 164 115
4 122 123 69 41
4 142 186 143 175
4 60 39 61 42
4 40 51 69 70
4 120 31 123 41
4 157 174 36 175
4 50 148 89 68
4 48 78 155 115
4 52 83 51 70
4 151 56 66 95
4 71 61 43 42
4 169 148 34 147
4 100 193 39 42
4 40 81 51 199
4 110 174 32 112
4 109 30 145 106
4 100 66 193 95
4 169 34 78 115
4 190 92 83 70
4 50 89 81 199
4 54 86 170 68
4 74 56 45 167
4 142 143 43 103
4 153 59 64 97
4 99 196 166 167
4 169 78 170 202
4 142 193 186 95
4 192 128 89 199
4 74 45 36 106
4 110 31 143 103
4 76 184 59 97
4 142 43 193 42
4 52 51 128 199
4 189 201 91 202
4 120 37 31 103
4 74 36 186 175
4 195 196 184 97
4 141 164 140 183
4 157 158 174 112
4 109 145 164 183
4 195 184 145 183
4 110 32 31 41
4 157 36 30 106
4 76 140 184 183
4 171 172 206 181
4 178 172 261 136
4 256 261 255 136
4 256 257 261 245
4 180 150 206 207
4 60 119 39 210
4 118 215 241 263
4 178 205 172 181
4 216 243 238 244
4 162 217 233 232
4 180 206 131 181
4 179 137 119 210
4 216 204 217 232
4 220 237 219 229
4 216 217 243 159
4 259 258 262 224
4 240 254 237 229
4 153 64 227 208
4 161 205 258 224
4 240 237 238 223
4 226 227 233 208
4 234 228 254 229
4 171 248 137 210
4 160 132 204 232
4 180 131 138 159
4 133 251 213 252
4 171 206 248 207
4 162 138 217 159
4 161 258 243 244
4 220 225 237 223
4 151 150 166 212
4 260 247 257 245
4 259 262 214 263
4 151 66 150 207
4 234 254 209 253
4 162 233 250 208
4 242 241 262 263
4 171 137 172 136
4 161 243 131 159
4 160 204 225 223
4 161 131 205 181
4 179 255 137 136
4 216 238 204 223
4 100 39 248 210
4 260 213 247 252
4 226 233 132 232
4 134 214 215 263
4 180 138 150 212
4 178 261 239 245
4 259 246 258 244
4 178 239 205 224
4 240 238 246 244
4 242 262 239 224
4 99 250 64 208
4 240 246 254 253
4 242 239 247 245
4 135 219 228 229
4 99 166 250 212
4 259 214 246 253
4 118 241 251 252
4 100 248 66 207
4 134 209 214 253
4 162 250 138 212
4 242 247 241 252
4 71 187 61 280
4 102 281 197 280
4 122 92 82 203
4 17 18 82 117
4 122 82 123 117
4 19 264 273 265
4 267 279 222 20
4 125 273 270 265
4 267 272 279 176
4 19 116 18 117
4 21 25 286 24
4 23 28 26 20
4 23 285 28 27
4 218 286 275 24
4 85 53 84 288
4 235 236 231 266
4 221 222 28 20
4 267 222 231 230
4 268 38 129 203
4 125 270 197 188
4 126 287 272 176
4 277 270 276 265
4 267 231 272 266
4 125 197 187 280
4 190 129 92 203
4 277 276 287 176
4 19 18 264 22
4 17 82 38 203
4 102 197 90 188
4 126 84 287 288
4 284 130 285 27
4 121 276 264 265
4 71 37 187 177
4 120 123 116 117
4 198 88 127 191
4 221 16 25 24
4 23 26 15 22
4 121 279 276 176
4 235 231 124 230
4 125 187 273 177
4 278 271 236 266
4 277 287 283 288
4 284 285 274 282
4 278 127 271 191
4 269 275 16 24
4 200 283 53 288
4 23 15 285 282
4 121 26 279 20
4 21 124 25 230
4 19 273 116 177
4 200 90 283 188
4 126 271 84 191
4 269 16 130 27
4 17 38 15 282
4 221 25 222 230
4 121 264 26 22
4 120 116 37 177
4 60 61 281 280
4 277 283 270 188
4 126 272 271 266
4 268 274 38 282
4 85 84 88 191
4 17 15 18 22
4 221 28 16 27
4 93 94 73 55
4 85 88 67 87
4 80 49 79 87
4 44 104 73 72
4 146 33 67 168
4 211 165 149 55
4 8 47 14 154
4 105 104 108 144
4 105 108 29 107
4 7 139 13 75
4 44 165 194 98
4 200 53 77 168
4 8 1 101 4
4 2 5 152 58
4 260 6 213 3
4 105 35 104 72
4 96 57 182 75
4 7 14 139 154
4 146 29 33 107
4 7 13 10 9
4 12 13 57 75
4 85 67 53 168
4 44 73 165 55
4 63 152 62 58
4 8 101 47 46
4 96 182 194 144
4 60 281 119 4
4 12 5 6 3
4 173 185 35 72
4 65 149 94 55
4 146 67 49 87
4 114 113 47 154
4 163 108 182 144
4 12 6 13 9
4 173 35 111 156
4 163 182 139 75
4 260 257 6 9
4 105 29 35 156
4 163 139 113 154
4 256 10 257 9
4 146 49 29 156
4 163 113 108 107
4 80 111 49 156
4 102 101 281 4
4 12 57 5 58
4 44 194 104 144
4 96 194 62 98
4 2 0 5 3
4 93 73 185 72
4 179 119 1 4
4 200 77 90 46
4 114 33 113 107
4 7 10 14 11
4 96 62 57 58
4 133 213 0 3
4 102 90 101 46
4 256 255 10 11
4 63 62 249 98
4 114 47 77 46
4 179 1 255 11
4 211 249 165 98
4 114 77 33 168
4 198 79 88 87
4 8 14 1 11
CELL_TYPES 256
8
8
8
8
8
8
8
8
8
8
8
8
8
8
8
8
8
8
8
8
8
8
8
8
8
8
8
8
8
8
8
8
8
8
8
8
8
8
8
8
8
8
8
8
8
8
8
8
8
8
8
8
8
8
8
8
8
8
8
8
8
8
8
8
8
8
8
8
8
8
8
8
8
8
8
8
8
8
8
8
8
8
8
8
8
8
8
8
8
8
8
8
8
8
8
8
8
8
8
8
8
8
8
8
8
8
8
8
8
8
8
8
8
8
8
8
8
8
8
8
8
8
8
8
8
8
8
8
8
8
8
8
8
8
8
8
8
8
8
8
8
8
8
8
8
8
8
8
8
8
8
8
8
8
8
8
8
8
8
8
8
8
8
8
8
8
8
8
8
8
8
8
8
8
8
8
8
8
8
8
8
8
8
8
8
8
8
8
8
8
8
8
8
8
8
8
8
8
8
8
8
8
8
8
8
8
8
8
8
8
8
8
8
8
8
8
8
8
8
8
8
8
8
8
8
8
8
8
8
8
8
8
8
8
8
8
8
8
8
8
8
8
8
8
8
8
8
8
8
8
8
8
8
8
8
8
CELL_DATA 256
VECTORS vector_value float
0.00475263 -0.159435 0
-0.541754 -0.673222 0
-0.863944 -0.725703 0
0.0088918 -0.962884 0
-0.12874 -0.194535 0
-0.00382033 -0.152596 0
0.00284358 -0.0276007 0
-0.0190008 -1.51237 0
-0.066656 -0.163475 0
0.555319 -4.63845 0
-0.354393 -0.216135 0
-0.264822 -1.0662 0
-0.0103948 -0.0399684 0
-0.264473 -0.999412 0
-0.535761 -0.573584 0
-0.0146675 -0.390669 0
-0.0525725 -0.0551397 0
-0.0234636 -0.22219 0
-0.0246993 -0.0397744 0
-0.127743 -1.29641 0
0.153871 -1.21998 0
-0.209962 -0.413527 0
-1.22567 -3.56221 0
-0.071929 -0.37867 0
1.87081 -2.40663 0
-0.115523 -0.0826396 0
-0.00494268 -0.031096 0
-0.051219 -1.40744 0
-0.0957709 -0.498341 0
-0.517207 -0.326414 0
-0.990675 -4.62079 0
-0.0373486 -0.130157 0
-0.518311 -2.21449 0
-0.00462882 -0.149596 0
0.00371642 -0.158906 0
-0.298051 -0.389352 0
-0.465757 -0.721745 0
-0.0758767 -1.07134 0
-0.874153 -2.54658 0
-0.000980652 -0.033076 0
0.00349113 -0.169787 0
-0.758253 -0.546351 0
0.196745 -3.0783 0
-0.011298 -0.126899 0
-0.313689 -0.475676 0
-0.00802391 -0.956867 0
-0.216315 -0.493766 0
0.00645062 -0.0291394 0
-0.300214 -0.203429 0
0.864175 -1.67558 0
-0.0508156 -0.175422 0
-0.4721 -2.91941 0
-0.0199303 -0.207313 0
0.00630573 -1.4945 0
1.97538 -4.25546 0
-0.29049 -0.165973 0
-0.381041 -0.527183 0
-0.275596 -0.950057 0
-0.0353655 -0.0674429 0
-0.321882 -1.05748 0
-0.683242 -1.16872 0
0.295827 -0.502076 0
-0.180155 -0.12621 0
-0.157977 -0.356988 0
0.114167 -0.671646 0
0.156977 -1.42656 0
-0.0416076 -3.40385 0
0.35721 -3.12014 0
-0.183621 -0.377079 0
-1.55111 -2.67177 0
1.20244 -1.50168 0
0.241624 -0.622973 0
0.0150874 -0.0848306 0
-0.0176852 -0.0672017 0
-0.0440833 -0.399041 0
-0.162119 -3.17807 0
-0.00392443 -0.0474632 0
0.0761937 -0.146452 0
-0.0123091 -0.0729503 0
0.439032 -0.586619 0
0.436683 -0.346829 0
-0.00676202 -0.11252 0
0.228696 -0.848237 0
0.0706957 -0.0963563 0
-0.00615203 -0.095412 0
0.879374 -0.67493 0
-0.193307 -0.957575 0
0.00139747 -0.0891083 0
-0.0964683 -0.161144 0
0.191376 -1.10318 0
-0.165411 -0.494783 0
-0.0630186 -0.114276 0
0.114185 -0.284707 0
0.0130282 -0.0829286 0
-0.253677 -0.410103 0
1.23614 -2.40186 0
1.52779 -0.97278 0
-0.470126 -0.434783 0
1.12354 -0.927436 0
-0.0300581 -0.10976 0
1.97498 -1.32169 0
0.334645 -1.23207 0
-0.00307762 -0.16825 0
-0.00430734 -0.0927482 0
0.162171 -0.671586 0
0.461911 -3.64387 0
0.00184223 -0.036732 0
-1.17835 -1.79812 0
0.999243 -1.62093 0
-0.00144211 -0.0902953 0
1.48978 -1.08158 0
-0.118246 -0.205605 0
0.18857 -1.32719 0
0.597181 -0.500233 0
0.133044 -0.490637 0
0.286423 -0.274324 0
0.671302 -0.804206 0
-0.0187364 -0.120337 0
0.90465 -0.700955 0
1.48518 -2.19825 0
0.369188 -0.587514 0
-0.0608905 -0.215738 0
0.944462 -0.503806 0
0.483317 -1.16533 0
-0.53167 -0.500038 0
1.53489 -0.936581 0
-0.0658923 -0.16048 0
1.89144 -2.06147 0
-0.390645 -1.41031 0
-0.336433 -0.923023 0
-0.39597 -6.62063 0
-0.0434836 -3.57651 0
0.382024 -6.60936 0
-1.19843 -0.99394 0
-0.106861 -0.10601 0
-0.228417 -0.398717 0
-0.521774 -0.240229 0
-0.442348 -2.41285 0
-0.0477802 -0.591043 0
-0.0337073 -0.0213225 0
-0.00599015 -0.0205378 0
-0.0257552 -0.474443 0
-0.143995 -0.896696 0
-0.0676675 -0.83836 0
-0.0457285 -0.0792666 0
-0.0645972 -0.36256 0
0.194958 -4.50415 0
-0.0861778 -0.389034 0
-0.519104 -0.476713 0
-0.864403 -0.726188 0
-0.252727 -0.525425 0
-0.0805665 -0.353902 0
-0.181723 -4.18746 0
-0.904021 -0.449528 0
-0.831422 -0.651984 0
0.205488 -3.78186 0
-0.0527129 -0.274473 0
-0.333814 -0.927744 0
-0.00879292 -0.039383 0
-1.00228 -0.56241 0
0.0665858 -1.09333 0
2.10883 -5.7049 0
0.10742 -1.27183 0
-0.0655326 -0.402988 0
-0.0594725 -0.0404591 0
-0.673803 -0.24474 0
-0.0174638 -0.753085 0
-0.0931826 -0.431472 0
-0.150814 -1.01606 0
-0.348785 -0.461443 0
0.00885145 -0.0409024 0
-0.0749414 -1.38028 0
-0.0637262 -0.434916 0
-0.0923697 -0.359686 0
-0.00252401 -0.0234014 0
-0.168796 -0.0698435 0
-0.0623721 -0.712965 0
-0.300762 -0.863263 0
-0.101134 -0.210248 0
-0.109158 -0.624721 0
-0.0451176 -0.181892 0
-0.0119707 -0.222978 0
-0.0932202 -0.339217 0
-0.354278 -0.191437 0
1.05672 -2.80418 0
-1.41024 -2.81926 0
-0.118862 -0.227804 0
-0.395644 -0.809022 0
0.00501275 -0.200706 0
-0.0240803 -0.980653 0
-0.21093 -0.337457 0
-0.0232341 -0.116041 0
-0.0223628 -0.983091 0
0.328028 -1.32793 0
0.122542 -0.74249 0
0.00263871 -0.912798 0
0.255132 -1.46579 0
-0.137316 -0.707962 0
-0.195511 -0.574023 0
0.10723 -0.938007 0
0.0993789 -1.54529 0
-0.0378847 -0.659394 0
0.150078 -0.554388 0
-0.0738537 -0.491518 0
-0.738649 -1.99317 0
0.463203 -0.998643 0
0.295948 -0.998291 0
-0.0989391 -1.17976 0
0.118202 -1.34024 0
0.018697 -0.643876 0
-0.182223 -1.7697 0
-0.361264 -1.74148 0
-0.534969 -1.08197 0
0.0758723 -0.777937 0
0.0355678 -0.777313 0
0.19931 -1.33437 0
-0.911527 -0.601505 0
0.286763 -1.13204 0
-1.7192 -3.53669 0
0.0284565 -0.745195 0
-0.119602 -0.779691 0
0.012651 -1.03076 0
0.340891 -0.994387 0
-0.362413 -0.759465 0
0.346825 -1.55114 0
-0.243909 -1.28487 0
-0.0602911 -0.502812 0
0.0710586 -0.547014 0
0.44418 -1.5116 0
-0.202346 -1.33029 0
0.0221943 -0.516675 0
-0.0953673 -2.31829 0
-0.0185573 -0.980782 0
0.106626 -1.15021 0
0.0498601 -0.550976 0
-1.04452 -1.99369 0
-0.0446507 -1.13587 0
0.215112 -0.825976 0
0.0703745 -1.64181 0
0.424906 -1.02517 0
-0.0620003 -0.965724 0
-0.0475122 -3.43736 0
-0.256693 -0.310535 0
-0.265293 -0.955748 0
-0.0518748 -1.20546 0
-0.12897 -1.48912 0
0.232614 -0.699138 0
-0.369589 -0.289311 0
-0.161195 -2.60265 0
-0.366615 -1.51766 0
-0.516023 -0.469894 0
0.254783 -2.47252 0
-0.488165 -0.708054 0
-0.259084 -0.716644 0
0.151507 -1.00898 0
0.0399922 -1.55724 0
