# vtk DataFile Version 2.0
Unstructured Grid by M++
ASCII
DATASET UNSTRUCTURED_GRID
POINTS 81 float
  1.000000   0.625000 0
  0.750000   0.375000 0
  1.000000   0.000000 0
  0.875000   0.875000 0
  0.750000   0.125000 0
  1.000000   1.000000 0
  0.875000   0.250000 0
  0.625000   0.875000 0
  1.000000   0.750000 0
  0.875000   0.000000 0
  1.000000   0.250000 0
  0.625000   0.375000 0
  0.875000   0.500000 0
  0.625000   0.625000 0
  1.000000   0.500000 0
  0.750000   0.500000 0
  0.750000   1.000000 0
  1.000000   0.125000 0
  0.625000   0.250000 0
  0.750000   0.750000 0
  0.625000   0.000000 0
  0.125000   0.375000 0
  0.000000   0.500000 0
  0.125000   0.625000 0
  0.625000   1.000000 0
  1.000000   0.875000 0
  0.875000   0.125000 0
  0.500000   0.250000 0
  0.625000   0.500000 0
  0.250000   0.625000 0
  0.000000   0.625000 0
  0.375000   0.500000 0
  0.375000   0.000000 0
  0.000000   0.125000 0
  0.125000   0.875000 0
  0.875000   1.000000 0
  0.750000   0.250000 0
  0.375000   0.375000 0
  0.250000   0.375000 0
  0.625000   0.750000 0
  0.125000   0.125000 0
  0.500000   0.000000 0
  0.250000   0.875000 0
  0.125000   0.500000 0
  0.500000   0.375000 0
  0.125000   0.000000 0
  0.250000   0.750000 0
  0.250000   0.500000 0
  0.000000   0.875000 0
  0.875000   0.625000 0
  0.500000   0.750000 0
  0.750000   0.625000 0
  0.250000   0.000000 0
  0.375000   0.750000 0
  0.750000   0.875000 0
  0.625000   0.125000 0
  0.250000   0.250000 0
  0.375000   1.000000 0
  0.375000   0.250000 0
  0.000000   0.375000 0
  0.500000   1.000000 0
  0.875000   0.750000 0
  0.750000   0.000000 0
  0.375000   0.125000 0
  0.500000   0.875000 0
  0.000000   0.000000 0
  0.125000   0.750000 0
  0.500000   0.625000 0
  0.125000   0.250000 0
  0.500000   0.125000 0
  0.250000   1.000000 0
  0.250000   0.125000 0
  0.000000   1.000000 0
  0.375000   0.875000 0
  0.000000   0.750000 0
  0.375000   0.625000 0
  0.000000   0.250000 0
  0.125000   1.000000 0
  1.000000   0.375000 0
  0.500000   0.500000 0
  0.875000   0.375000 0
CELLS 64 320
4 56 71 58 63
4 27 58 69 63
4 41 69 32 63
4 76 33 68 40
4 27 44 58 37
4 79 31 44 37
4 56 38 68 21
4 56 58 38 37
4 52 32 71 63
4 47 38 31 37
4 76 68 59 21
4 22 59 43 21
4 65 45 33 40
4 47 43 38 21
4 52 71 45 40
4 56 68 71 40
4 74 30 66 23
4 46 66 29 23
4 22 43 30 23
4 72 48 77 34
4 46 53 42 73
4 50 64 53 73
4 70 42 57 73
4 74 66 48 34
4 46 42 66 34
4 47 29 43 23
4 70 77 42 34
4 60 57 64 73
4 79 67 31 75
4 47 31 29 75
4 50 53 67 75
4 46 29 53 75
4 10 78 6 80
4 36 6 1 80
4 15 1 12 80
4 36 4 6 26
4 14 12 78 80
4 2 17 9 26
4 36 18 4 55
4 15 28 1 11
4 62 4 20 55
4 10 6 17 26
4 27 18 44 11
4 62 9 4 26
4 27 69 18 55
4 36 1 18 11
4 41 20 69 55
4 79 44 28 11
4 16 24 54 7
4 19 54 39 7
4 50 39 64 7
4 8 25 61 3
4 60 64 24 7
4 79 28 67 13
4 19 51 61 49
4 8 61 0 49
4 15 51 28 13
4 19 39 51 13
4 50 67 39 13
4 19 61 54 3
4 14 0 12 49
4 5 35 25 3
4 15 12 51 49
4 16 54 35 3
CELL_TYPES 64
8
8
8
8
8
8
8
8
8
8
8
8
8
8
8
8
8
8
8
8
8
8
8
8
8
8
8
8
8
8
8
8
8
8
8
8
8
8
8
8
8
8
8
8
8
8
8
8
8
8
8
8
8
8
8
8
8
8
8
8
8
8
8
8
CELL_DATA 64
VECTORS vector_value float
0.0889945 -0.264846 0
0.0133476 -0.14658 0
0.0370776 -0.441585 0
-0.0156316 -0.0198015 0
0.965617 -1.05653 0
2.24214 -2.56946 0
-0.00850705 -0.0605033 0
0.0533838 -0.441049 0
0.0334808 -0.103413 0
1.42556 -1.36175 0
4.77266e-05 -0.00659869 0
0.0300884 -0.0400492 0
-0.0169448 -0.0673212 0
0.240869 -0.183961 0
-0.000946675 -0.0647431 0
-0.0462785 -0.135526 0
0.12635 -0.950526 0
0.235925 -0.35576 0
0.37439 -0.437591 0
-0.163111 -1.415 0
0.285275 -0.547571 0
-0.0638551 -2.14923 0
0.253961 -0.446175 0
0.128326 -1.17138 0
0.448798 -0.601499 0
0.76218 -0.45088 0
-0.231889 -0.669486 0
0.210477 -1.55374 0
-0.117492 -1.09598 0
0.0469237 -2.27935 0
-0.237402 -1.92977 0
0.134235 -0.988131 0
0.0409268 -0.215584 0
0.178339 -2.78289 0
-0.930678 -2.72654 0
0.252101 -2.88006 0
-0.348984 -0.476518 0
0.280565 -1.12571 0
-0.269701 -3.36874 0
0.217236 -0.546544 0
-0.181682 -2.80352 0
0.158234 -0.443468 0
3.1312 -1.32238 0
0.0835909 -2.03648 0
-0.103192 -0.740976 0
1.44014 -2.11447 0
-0.357325 -1.35722 0
0.233252 -0.0951683 0
0.396125 -0.333074 0
0.205158 -0.291849 0
-0.0116536 -0.299051 0
0.322803 -1.948 0
-0.103947 -0.974723 0
0.0494717 -0.166948 0
-0.0158771 -0.608117 0
0.0572172 -2.40845 0
0.197197 -0.583065 0
0.0292018 -0.155198 0
0.246971 -0.604046 0
0.491042 -0.99141 0
-0.749811 -2.26367 0
0.348667 -1.51999 0
-0.112977 -0.72252 0
0.712345 -1.08781 0
