# vtk DataFile Version 2.0
Unstructured Grid by M++
ASCII
DATASET UNSTRUCTURED_GRID
POINTS 81 float
  1.000000   0.625000 0
  0.750000   0.375000 0
  1.000000   0.000000 0
  0.875000   0.875000 0
  0.750000   0.125000 0
  1.000000   1.000000 0
  0.875000   0.250000 0
  0.625000   0.875000 0
  1.000000   0.750000 0
  0.875000   0.000000 0
  1.000000   0.250000 0
  0.625000   0.375000 0
  0.875000   0.500000 0
  0.625000   0.625000 0
  1.000000   0.500000 0
  0.750000   0.500000 0
  0.750000   1.000000 0
  1.000000   0.125000 0
  0.625000   0.250000 0
  0.750000   0.750000 0
  0.625000   0.000000 0
  0.125000   0.375000 0
  0.000000   0.500000 0
  0.125000   0.625000 0
  0.625000   1.000000 0
  1.000000   0.875000 0
  0.875000   0.125000 0
  0.500000   0.250000 0
  0.625000   0.500000 0
  0.250000   0.625000 0
  0.000000   0.625000 0
  0.375000   0.500000 0
  0.375000   0.000000 0
  0.000000   0.125000 0
  0.125000   0.875000 0
  0.875000   1.000000 0
  0.750000   0.250000 0
  0.375000   0.375000 0
  0.250000   0.375000 0
  0.625000   0.750000 0
  0.125000   0.125000 0
  0.500000   0.000000 0
  0.250000   0.875000 0
  0.125000   0.500000 0
  0.500000   0.375000 0
  0.125000   0.000000 0
  0.250000   0.750000 0
  0.250000   0.500000 0
  0.000000   0.875000 0
  0.875000   0.625000 0
  0.500000   0.750000 0
  0.750000   0.625000 0
  0.250000   0.000000 0
  0.375000   0.750000 0
  0.750000   0.875000 0
  0.625000   0.125000 0
  0.250000   0.250000 0
  0.375000   1.000000 0
  0.375000   0.250000 0
  0.000000   0.375000 0
  0.500000   1.000000 0
  0.875000   0.750000 0
  0.750000   0.000000 0
  0.375000   0.125000 0
  0.500000   0.875000 0
  0.000000   0.000000 0
  0.125000   0.750000 0
  0.500000   0.625000 0
  0.125000   0.250000 0
  0.500000   0.125000 0
  0.250000   1.000000 0
  0.250000   0.125000 0
  0.000000   1.000000 0
  0.375000   0.875000 0
  0.000000   0.750000 0
  0.375000   0.625000 0
  0.000000   0.250000 0
  0.125000   1.000000 0
  1.000000   0.375000 0
  0.500000   0.500000 0
  0.875000   0.375000 0
CELLS 64 320
4 56 71 58 63
4 27 58 69 63
4 41 69 32 63
4 76 33 68 40
4 27 44 58 37
4 79 31 44 37
4 56 38 68 21
4 56 58 38 37
4 52 32 71 63
4 47 38 31 37
4 76 68 59 21
4 22 59 43 21
4 65 45 33 40
4 47 43 38 21
4 52 71 45 40
4 56 68 71 40
4 74 30 66 23
4 46 66 29 23
4 22 43 30 23
4 72 48 77 34
4 46 53 42 73
4 50 64 53 73
4 70 42 57 73
4 74 66 48 34
4 46 42 66 34
4 47 29 43 23
4 70 77 42 34
4 60 57 64 73
4 79 67 31 75
4 47 31 29 75
4 50 53 67 75
4 46 29 53 75
4 10 78 6 80
4 36 6 1 80
4 15 1 12 80
4 36 4 6 26
4 14 12 78 80
4 2 17 9 26
4 36 18 4 55
4 15 28 1 11
4 62 4 20 55
4 10 6 17 26
4 27 18 44 11
4 62 9 4 26
4 27 69 18 55
4 36 1 18 11
4 41 20 69 55
4 79 44 28 11
4 16 24 54 7
4 19 54 39 7
4 50 39 64 7
4 8 25 61 3
4 60 64 24 7
4 79 28 67 13
4 19 51 61 49
4 8 61 0 49
4 15 51 28 13
4 19 39 51 13
4 50 67 39 13
4 19 61 54 3
4 14 0 12 49
4 5 35 25 3
4 15 12 51 49
4 16 54 35 3
CELL_TYPES 64
8
8
8
8
8
8
8
8
8
8
8
8
8
8
8
8
8
8
8
8
8
8
8
8
8
8
8
8
8
8
8
8
8
8
8
8
8
8
8
8
8
8
8
8
8
8
8
8
8
8
8
8
8
8
8
8
8
8
8
8
8
8
8
8
CELL_DATA 64
VECTORS vector_value float
0.000255086 -0.000754032 0
0.0120477 -0.189003 0
0.00471108 -0.147422 0
-0.00655441 -0.169143 0
0.115546 -0.183047 0
0.145927 -0.241537 0
-0.0109245 -0.0176095 0
0.0146967 -0.0168355 0
-0.000219748 -0.000982541 0
0.0912722 -0.151963 0
-0.0119657 -0.152818 0
-0.0111406 -0.116069 0
0.000223215 -0.17057 0
-0.012796 -0.0579771 0
-0.000238847 -0.000801201 0
-0.00213914 -0.00209848 0
0.00618761 -0.0844203 0
0.0905267 -0.276576 0
-0.013793 -0.10087 0
0.3936 -0.445591 0
0.424129 -3.13621 0
0.153021 -0.402774 0
0.0880174 -2.26026 0
0.0581948 -0.118317 0
0.316415 -0.525848 0
0.0581815 -0.166801 0
0.889965 -0.903463 0
-0.529624 -0.674198 0
1.88244 -0.725415 0
0.7777 -0.862216 0
1.47065 -0.762755 0
0.93225 -2.36906 0
0.054702 -5.62105 0
0.0342768 -0.774352 0
0.0874029 -0.34616 0
-0.101627 -1.66504 0
0.198669 -5.78068 0
-0.321432 -0.615295 0
0.0943462 -0.125977 0
0.215498 -0.77226 0
0.298169 -0.380285 0
-2.30907 -5.18632 0
0.0423167 -0.743961 0
-2.52073 -6.40726 0
0.225535 -0.661663 0
0.291566 -0.490328 0
0.0564916 -0.277388 0
0.341307 -0.533357 0
0.00949952 -1.87744 0
0.400878 -1.80247 0
0.246979 -0.103712 0
-0.149538 -0.17188 0
0.116927 -0.27491 0
1.95093 -0.243761 0
3.44631 -3.717 0
0.319369 -0.311248 0
0.564669 0.0906546 0
2.88776 -0.349434 0
1.07046 -0.129507 0
0.113941 -1.7388 0
2.25031 -3.80574 0
-0.288927 -0.530551 0
1.38207 -2.18585 0
-0.542831 -1.03358 0
