# vtk DataFile Version 2.0
Unstructured Grid by M++
ASCII
DATASET UNSTRUCTURED_GRID
POINTS 81 float
  1.000000   0.625000 0
  0.750000   0.375000 0
  1.000000   0.000000 0
  0.875000   0.875000 0
  0.750000   0.125000 0
  1.000000   1.000000 0
  0.875000   0.250000 0
  0.625000   0.875000 0
  1.000000   0.750000 0
  0.875000   0.000000 0
  1.000000   0.250000 0
  0.625000   0.375000 0
  0.875000   0.500000 0
  0.625000   0.625000 0
  1.000000   0.500000 0
  0.750000   0.500000 0
  0.750000   1.000000 0
  1.000000   0.125000 0
  0.625000   0.250000 0
  0.750000   0.750000 0
  0.625000   0.000000 0
  0.125000   0.375000 0
  0.000000   0.500000 0
  0.125000   0.625000 0
  0.625000   1.000000 0
  1.000000   0.875000 0
  0.875000   0.125000 0
  0.500000   0.250000 0
  0.625000   0.500000 0
  0.250000   0.625000 0
  0.000000   0.625000 0
  0.375000   0.500000 0
  0.375000   0.000000 0
  0.000000   0.125000 0
  0.125000   0.875000 0
  0.875000   1.000000 0
  0.750000   0.250000 0
  0.375000   0.375000 0
  0.250000   0.375000 0
  0.625000   0.750000 0
  0.125000   0.125000 0
  0.500000   0.000000 0
  0.250000   0.875000 0
  0.125000   0.500000 0
  0.500000   0.375000 0
  0.125000   0.000000 0
  0.250000   0.750000 0
  0.250000   0.500000 0
  0.000000   0.875000 0
  0.875000   0.625000 0
  0.500000   0.750000 0
  0.750000   0.625000 0
  0.250000   0.000000 0
  0.375000   0.750000 0
  0.750000   0.875000 0
  0.625000   0.125000 0
  0.250000   0.250000 0
  0.375000   1.000000 0
  0.375000   0.250000 0
  0.000000   0.375000 0
  0.500000   1.000000 0
  0.875000   0.750000 0
  0.750000   0.000000 0
  0.375000   0.125000 0
  0.500000   0.875000 0
  0.000000   0.000000 0
  0.125000   0.750000 0
  0.500000   0.625000 0
  0.125000   0.250000 0
  0.500000   0.125000 0
  0.250000   1.000000 0
  0.250000   0.125000 0
  0.000000   1.000000 0
  0.375000   0.875000 0
  0.000000   0.750000 0
  0.375000   0.625000 0
  0.000000   0.250000 0
  0.125000   1.000000 0
  1.000000   0.375000 0
  0.500000   0.500000 0
  0.875000   0.375000 0
CELLS 64 320
4 56 71 58 63
4 27 58 69 63
4 41 69 32 63
4 76 33 68 40
4 27 44 58 37
4 79 31 44 37
4 56 38 68 21
4 56 58 38 37
4 52 32 71 63
4 47 38 31 37
4 76 68 59 21
4 22 59 43 21
4 65 45 33 40
4 47 43 38 21
4 52 71 45 40
4 56 68 71 40
4 74 30 66 23
4 46 66 29 23
4 22 43 30 23
4 72 48 77 34
4 46 53 42 73
4 50 64 53 73
4 70 42 57 73
4 74 66 48 34
4 46 42 66 34
4 47 29 43 23
4 70 77 42 34
4 60 57 64 73
4 79 67 31 75
4 47 31 29 75
4 50 53 67 75
4 46 29 53 75
4 10 78 6 80
4 36 6 1 80
4 15 1 12 80
4 36 4 6 26
4 14 12 78 80
4 2 17 9 26
4 36 18 4 55
4 15 28 1 11
4 62 4 20 55
4 10 6 17 26
4 27 18 44 11
4 62 9 4 26
4 27 69 18 55
4 36 1 18 11
4 41 20 69 55
4 79 44 28 11
4 16 24 54 7
4 19 54 39 7
4 50 39 64 7
4 8 25 61 3
4 60 64 24 7
4 79 28 67 13
4 19 51 61 49
4 8 61 0 49
4 15 51 28 13
4 19 39 51 13
4 50 67 39 13
4 19 61 54 3
4 14 0 12 49
4 5 35 25 3
4 15 12 51 49
4 16 54 35 3
CELL_TYPES 64
8
8
8
8
8
8
8
8
8
8
8
8
8
8
8
8
8
8
8
8
8
8
8
8
8
8
8
8
8
8
8
8
8
8
8
8
8
8
8
8
8
8
8
8
8
8
8
8
8
8
8
8
8
8
8
8
8
8
8
8
8
8
8
8
CELL_DATA 64
VECTORS vector_value float
-0.127725 -0.106224 0
-0.0231583 -0.0147637 0
-0.0267444 -0.0363287 0
-0.111568 -0.471037 0
-0.0464802 -0.130848 0
0.686599 -0.832299 0
-0.205582 -0.221822 0
-0.0757501 -0.110638 0
-0.0196179 -0.0577634 0
0.00139267 -0.343051 0
-0.0653422 -0.261511 0
-0.050305 -0.136947 0
-2.59365e-06 -0.508422 0
-0.0158131 -0.106735 0
-0.0054034 -0.177406 0
-0.182577 -0.143217 0
0.00626405 -0.0365801 0
0.355753 -0.88454 0
-0.0110515 -0.0352265 0
0.41354 -0.3661 0
0.389741 -0.862091 0
0.220212 -0.204111 0
0.348694 -1.03682 0
0.0642536 -0.0783885 0
0.372361 -1.51807 0
0.0367826 -0.328842 0
0.546453 -1.46436 0
0.861599 -0.477555 0
0.866165 -1.05326 0
0.485325 -0.728619 0
0.195594 -0.280318 0
0.77996 -1.26764 0
1.15478 -3.23519 0
2.48185 -3.20324 0
0.523487 -3.202 0
0.362563 -0.703497 0
0.445859 -2.34945 0
0.055391 -6.95053 0
0.0362881 -0.0476586 0
0.484652 -0.443269 0
0.00152881 -0.0134818 0
0.932936 -6.44527 0
0.681583 -0.545472 0
0.043916 -0.237704 0
-0.016851 -0.0683355 0
1.14615 -0.291276 0
-0.0020493 -0.0183656 0
0.690804 -0.586242 0
1.34694 -0.376388 0
1.07885 -0.837723 0
0.315468 -0.288711 0
0.806716 -3.27012 0
1.56271 -1.23611 0
0.347439 -0.306655 0
-0.0529156 -1.49805 0
-0.583285 -3.344 0
0.206271 -0.191531 0
0.394543 -0.560787 0
0.131454 -0.128082 0
1.20799 -0.940787 0
-0.290412 -1.76547 0
0.462505 -1.73091 0
-0.357295 -3.5904 0
1.3671 -1.31177 0
