# vtk DataFile Version 2.0
Unstructured Grid by M++
ASCII
DATASET UNSTRUCTURED_GRID
POINTS 289 float
  0.562500   1.000000 0
  0.562500   0.625000 0
  0.625000   1.000000 0
  0.562500   0.937500 0
  0.562500   0.562500 0
  0.625000   0.937500 0
  0.562500   0.875000 0
  0.625000   0.750000 0
  0.625000   0.625000 0
  0.562500   0.812500 0
  0.562500   0.750000 0
  0.562500   0.687500 0
  0.625000   0.875000 0
  0.625000   0.812500 0
  0.625000   0.687500 0
  0.687500   0.125000 0
  0.875000   0.062500 0
  0.625000   0.125000 0
  0.625000   0.187500 0
  0.625000   0.250000 0
  0.812500   0.187500 0
  1.000000   0.125000 0
  0.687500   0.187500 0
  0.750000   0.125000 0
  0.937500   0.062500 0
  0.937500   0.125000 0
  0.750000   0.187500 0
  0.812500   0.062500 0
  0.812500   0.125000 0
  0.875000   0.687500 0
  0.187500   0.250000 0
  0.437500   0.250000 0
  0.375000   0.187500 0
  0.812500   0.625000 0
  0.125000   0.187500 0
  0.937500   0.750000 0
  0.250000   0.312500 0
  0.500000   0.312500 0
  0.625000   0.062500 0
  0.437500   0.500000 0
  0.375000   0.125000 0
  0.437500   0.187500 0
  0.437500   0.437500 0
  0.437500   0.375000 0
  0.875000   0.875000 0
  0.187500   0.375000 0
  0.687500   0.562500 0
  0.687500   0.625000 0
  0.000000   0.125000 0
  0.937500   0.625000 0
  0.250000   0.125000 0
  0.375000   0.062500 0
  0.375000   0.000000 0
  0.812500   0.500000 0
  0.125000   0.000000 0
  0.937500   0.937500 0
  0.250000   0.437500 0
  0.687500   0.875000 0
  0.687500   0.937500 0
  0.000000   0.437500 0
  0.500000   0.500000 0
  0.500000   0.437500 0
  0.750000   0.937500 0
  0.750000   1.000000 0
  0.062500   0.500000 0
  1.000000   1.000000 0
  0.312500   0.500000 0
  0.875000   0.562500 0
  0.187500   0.062500 0
  0.437500   0.125000 0
  0.437500   0.062500 0
  0.500000   0.375000 0
  0.937500   0.812500 0
  0.937500   0.875000 0
  0.250000   0.375000 0
  0.687500   0.812500 0
  0.000000   0.375000 0
  0.750000   0.562500 0
  0.062500   0.125000 0
  1.000000   0.562500 0
  1.000000   0.625000 0
  0.312500   0.125000 0
  0.562500   0.125000 0
  0.437500   0.000000 0
  0.875000   0.437500 0
  0.875000   0.500000 0
  0.187500   0.000000 0
  0.937500   0.562500 0
  0.937500   0.500000 0
  0.250000   0.062500 0
  0.687500   0.500000 0
  0.000000   0.062500 0
  0.500000   0.062500 0
  1.000000   0.875000 0
  1.000000   0.937500 0
  0.312500   0.437500 0
  0.750000   0.875000 0
  0.062500   0.437500 0
  0.812500   0.937500 0
  0.125000   0.500000 0
  0.375000   0.500000 0
  0.625000   0.562500 0
  0.625000   0.500000 0
  0.437500   0.312500 0
  0.875000   0.812500 0
  0.875000   0.750000 0
  0.187500   0.312500 0
  0.812500   0.687500 0
  0.812500   0.750000 0
  0.125000   0.250000 0
  0.375000   0.250000 0
  1.000000   0.687500 0
  0.312500   0.187500 0
  0.750000   0.687500 0
  0.750000   0.625000 0
  0.062500   0.187500 0
  0.562500   0.250000 0
  0.562500   0.187500 0
  0.375000   1.000000 0
  0.500000   0.562500 0
  0.500000   0.250000 0
  0.750000   0.250000 0
  0.500000   0.125000 0
  0.500000   0.187500 0
  1.000000   0.187500 0
  0.625000   0.375000 0
  0.875000   0.375000 0
  1.000000   0.437500 0
  0.312500   0.000000 0
  0.562500   0.000000 0
  0.812500   0.000000 0
  0.250000   0.687500 0
  0.000000   0.687500 0
  0.500000   1.000000 0
  0.250000   1.000000 0
  0.000000   1.000000 0
  0.437500   0.687500 0
  0.437500   0.625000 0
  0.187500   0.625000 0
  0.687500   0.750000 0
  0.000000   0.312500 0
  0.000000   0.250000 0
  0.375000   0.375000 0
  0.375000   0.312500 0
  0.812500   0.812500 0
  0.125000   0.312500 0
  0.875000   0.625000 0
  0.187500   0.187500 0
  0.187500   0.125000 0
  0.937500   1.000000 0
  0.250000   0.562500 0
  0.250000   0.500000 0
  0.687500   1.000000 0
  0.000000   0.500000 0
  0.687500   0.687500 0
  0.000000   0.187500 0
  0.937500   0.687500 0
  0.250000   0.250000 0
  0.250000   0.187500 0
  0.187500   0.687500 0
  0.000000   0.750000 0
  0.250000   0.750000 0
  0.125000   0.625000 0
  0.750000   0.750000 0
  0.062500   0.250000 0
  0.875000   0.937500 0
  0.187500   0.500000 0
  0.187500   0.437500 0
  0.812500   0.562500 0
  0.125000   0.125000 0
  0.125000   0.062500 0
  0.375000   0.625000 0
  0.375000   0.687500 0
  1.000000   0.750000 0
  0.312500   0.250000 0
  0.312500   0.312500 0
  0.812500   0.312500 0
  0.562500   0.312500 0
  0.375000   0.750000 0
  0.500000   0.625000 0
  0.250000   0.625000 0
  0.312500   0.687500 0
  0.750000   0.812500 0
  0.062500   0.312500 0
  0.062500   0.375000 0
  1.000000   0.812500 0
  0.312500   0.375000 0
  0.562500   0.375000 0
  0.687500   0.437500 0
  0.000000   0.000000 0
  0.500000   0.000000 0
  0.937500   0.437500 0
  0.250000   0.000000 0
  0.375000   0.437500 0
  0.812500   0.875000 0
  0.125000   0.375000 0
  0.125000   0.437500 0
  0.625000   0.437500 0
  1.000000   0.500000 0
  0.312500   0.062500 0
  0.750000   0.500000 0
  0.062500   0.000000 0
  0.062500   0.062500 0
  0.562500   0.062500 0
  0.062500   0.750000 0
  0.312500   0.750000 0
  0.312500   0.625000 0
  0.312500   0.562500 0
  0.062500   0.562500 0
  0.187500   1.000000 0
  0.437500   0.562500 0
  0.875000   1.000000 0
  0.187500   0.562500 0
  0.500000   0.937500 0
  0.250000   0.937500 0
  0.312500   1.000000 0
  0.125000   0.750000 0
  0.125000   0.687500 0
  1.000000   0.000000 0
  0.000000   0.937500 0
  0.000000   0.875000 0
  0.875000   0.125000 0
  0.875000   0.187500 0
  0.062500   0.812500 0
  0.312500   0.812500 0
  0.000000   0.812500 0
  0.000000   0.625000 0
  0.000000   0.562500 0
  0.062500   1.000000 0
  0.062500   0.937500 0
  0.937500   0.187500 0
  0.937500   0.250000 0
  0.062500   0.687500 0
  0.062500   0.625000 0
  0.125000   1.000000 0
  1.000000   0.250000 0
  1.000000   0.312500 0
  0.062500   0.875000 0
  0.125000   0.812500 0
  0.375000   0.812500 0
  0.125000   0.875000 0
  0.375000   0.937500 0
  0.375000   0.875000 0
  0.187500   0.750000 0
  0.187500   0.812500 0
  0.437500   0.812500 0
  0.187500   0.875000 0
  0.437500   0.875000 0
  0.375000   0.562500 0
  0.812500   1.000000 0
  0.125000   0.562500 0
  0.437500   1.000000 0
  0.437500   0.937500 0
  0.187500   0.937500 0
  0.125000   0.937500 0
  0.500000   0.687500 0
  0.500000   0.750000 0
  0.500000   0.812500 0
  0.250000   0.812500 0
  0.250000   0.875000 0
  0.500000   0.875000 0
  0.437500   0.750000 0
  0.312500   0.875000 0
  0.312500   0.937500 0
  0.687500   0.250000 0
  0.687500   0.312500 0
  0.937500   0.312500 0
  0.875000   0.250000 0
  0.625000   0.000000 0
  0.875000   0.000000 0
  0.687500   0.375000 0
  0.937500   0.375000 0
  0.875000   0.312500 0
  0.625000   0.312500 0
  0.687500   0.000000 0
  0.937500   0.000000 0
  0.750000   0.312500 0
  0.750000   0.375000 0
  1.000000   0.375000 0
  0.812500   0.250000 0
  0.562500   0.437500 0
  0.562500   0.500000 0
  0.687500   0.062500 0
  0.750000   0.437500 0
  0.750000   0.000000 0
  0.750000   0.062500 0
  1.000000   0.062500 0
  0.812500   0.375000 0
  0.812500   0.437500 0
CELLS 256 1280
4 169 170 148 68
4 151 166 56 167
4 195 45 196 167
4 54 170 201 202
4 109 34 30 147
4 40 32 81 112
4 192 89 86 68
4 48 91 78 202
4 99 64 196 97
4 71 43 37 103
4 74 186 56 95
4 109 164 34 115
4 50 81 158 112
4 122 69 92 70
4 195 145 45 106
4 110 143 174 175
4 157 30 158 147
4 40 69 32 41
4 50 158 148 147
4 141 155 164 115
4 122 123 69 41
4 142 186 143 175
4 60 39 61 42
4 40 51 69 70
4 120 31 123 41
4 157 174 36 175
4 50 148 89 68
4 48 78 155 115
4 52 83 51 70
4 151 56 66 95
4 71 61 43 42
4 169 148 34 147
4 100 193 39 42
4 40 81 51 199
4 110 174 32 112
4 109 30 145 106
4 100 66 193 95
4 169 34 78 115
4 190 92 83 70
4 50 89 81 199
4 54 86 170 68
4 74 56 45 167
4 142 143 43 103
4 153 59 64 97
4 99 196 166 167
4 169 78 170 202
4 142 193 186 95
4 192 128 89 199
4 74 45 36 106
4 110 31 143 103
4 76 184 59 97
4 142 43 193 42
4 52 51 128 199
4 189 201 91 202
4 120 37 31 103
4 74 36 186 175
4 195 196 184 97
4 141 164 140 183
4 157 158 174 112
4 109 145 164 183
4 195 184 145 183
4 110 32 31 41
4 157 36 30 106
4 76 140 184 183
4 171 172 206 181
4 178 172 261 136
4 256 261 255 136
4 256 257 261 245
4 180 150 206 207
4 60 119 39 210
4 118 215 241 263
4 178 205 172 181
4 216 243 238 244
4 162 217 233 232
4 180 206 131 181
4 179 137 119 210
4 216 204 217 232
4 220 237 219 229
4 216 217 243 159
4 259 258 262 224
4 240 254 237 229
4 153 64 227 208
4 161 205 258 224
4 240 237 238 223
4 226 227 233 208
4 234 228 254 229
4 171 248 137 210
4 160 132 204 232
4 180 131 138 159
4 133 251 213 252
4 171 206 248 207
4 162 138 217 159
4 161 258 243 244
4 220 225 237 223
4 151 150 166 212
4 260 247 257 245
4 259 262 214 263
4 151 66 150 207
4 234 254 209 253
4 162 233 250 208
4 242 241 262 263
4 171 137 172 136
4 161 243 131 159
4 160 204 225 223
4 161 131 205 181
4 179 255 137 136
4 216 238 204 223
4 100 39 248 210
4 260 213 247 252
4 226 233 132 232
4 134 214 215 263
4 180 138 150 212
4 178 261 239 245
4 259 246 258 244
4 178 239 205 224
4 240 238 246 244
4 242 262 239 224
4 99 250 64 208
4 240 246 254 253
4 242 239 247 245
4 135 219 228 229
4 99 166 250 212
4 259 214 246 253
4 118 241 251 252
4 100 248 66 207
4 134 209 214 253
4 162 250 138 212
4 242 247 241 252
4 71 187 61 280
4 102 281 197 280
4 122 92 82 203
4 17 18 82 117
4 122 82 123 117
4 19 264 273 265
4 267 279 222 20
4 125 273 270 265
4 267 272 279 176
4 19 116 18 117
4 21 25 286 24
4 23 28 26 20
4 23 285 28 27
4 218 286 275 24
4 85 53 84 288
4 235 236 231 266
4 221 222 28 20
4 267 222 231 230
4 268 38 129 203
4 125 270 197 188
4 126 287 272 176
4 277 270 276 265
4 267 231 272 266
4 125 197 187 280
4 190 129 92 203
4 277 276 287 176
4 19 18 264 22
4 17 82 38 203
4 102 197 90 188
4 126 84 287 288
4 284 130 285 27
4 121 276 264 265
4 71 37 187 177
4 120 123 116 117
4 198 88 127 191
4 221 16 25 24
4 23 26 15 22
4 121 279 276 176
4 235 231 124 230
4 125 187 273 177
4 278 271 236 266
4 277 287 283 288
4 284 285 274 282
4 278 127 271 191
4 269 275 16 24
4 200 283 53 288
4 23 15 285 282
4 121 26 279 20
4 21 124 25 230
4 19 273 116 177
4 200 90 283 188
4 126 271 84 191
4 269 16 130 27
4 17 38 15 282
4 221 25 222 230
4 121 264 26 22
4 120 116 37 177
4 60 61 281 280
4 277 283 270 188
4 126 272 271 266
4 268 274 38 282
4 85 84 88 191
4 17 15 18 22
4 221 28 16 27
4 93 94 73 55
4 85 88 67 87
4 80 49 79 87
4 44 104 73 72
4 146 33 67 168
4 211 165 149 55
4 8 47 14 154
4 105 104 108 144
4 105 108 29 107
4 7 139 13 75
4 44 165 194 98
4 200 53 77 168
4 8 1 101 4
4 2 5 152 58
4 260 6 213 3
4 105 35 104 72
4 96 57 182 75
4 7 14 139 154
4 146 29 33 107
4 7 13 10 9
4 12 13 57 75
4 85 67 53 168
4 44 73 165 55
4 63 152 62 58
4 8 101 47 46
4 96 182 194 144
4 60 281 119 4
4 12 5 6 3
4 173 185 35 72
4 65 149 94 55
4 146 67 49 87
4 114 113 47 154
4 163 108 182 144
4 12 6 13 9
4 173 35 111 156
4 163 182 139 75
4 260 257 6 9
4 105 29 35 156
4 163 139 113 154
4 256 10 257 9
4 146 49 29 156
4 163 113 108 107
4 80 111 49 156
4 102 101 281 4
4 12 57 5 58
4 44 194 104 144
4 96 194 62 98
4 2 0 5 3
4 93 73 185 72
4 179 119 1 4
4 200 77 90 46
4 114 33 113 107
4 7 10 14 11
4 96 62 57 58
4 133 213 0 3
4 102 90 101 46
4 256 255 10 11
4 63 62 249 98
4 114 47 77 46
4 179 1 255 11
4 211 249 165 98
4 114 77 33 168
4 198 79 88 87
4 8 14 1 11
CELL_TYPES 256
8
8
8
8
8
8
8
8
8
8
8
8
8
8
8
8
8
8
8
8
8
8
8
8
8
8
8
8
8
8
8
8
8
8
8
8
8
8
8
8
8
8
8
8
8
8
8
8
8
8
8
8
8
8
8
8
8
8
8
8
8
8
8
8
8
8
8
8
8
8
8
8
8
8
8
8
8
8
8
8
8
8
8
8
8
8
8
8
8
8
8
8
8
8
8
8
8
8
8
8
8
8
8
8
8
8
8
8
8
8
8
8
8
8
8
8
8
8
8
8
8
8
8
8
8
8
8
8
8
8
8
8
8
8
8
8
8
8
8
8
8
8
8
8
8
8
8
8
8
8
8
8
8
8
8
8
8
8
8
8
8
8
8
8
8
8
8
8
8
8
8
8
8
8
8
8
8
8
8
8
8
8
8
8
8
8
8
8
8
8
8
8
8
8
8
8
8
8
8
8
8
8
8
8
8
8
8
8
8
8
8
8
8
8
8
8
8
8
8
8
8
8
8
8
8
8
8
8
8
8
8
8
8
8
8
8
8
8
8
8
8
8
8
8
8
8
8
8
8
8
8
8
8
8
8
8
CELL_DATA 256
VECTORS vector_value float
0.0800812 -0.692464 0
-0.0860302 -0.250384 0
0.0360072 -0.424196 0
0.0865406 -0.30942 0
0.107035 -0.53112 0
-0.718527 -1.26986 0
-0.0241289 -1.05352 0
0.0546357 -0.162758 0
-0.0148223 -0.500124 0
-0.795573 -3.3438 0
0.0343261 -0.290203 0
0.0916235 -0.504482 0
-0.227091 -0.804009 0
-1.33124 -3.19118 0
0.1288 -0.483519 0
-0.565323 -0.851235 0
-0.01719 -0.497222 0
-1.57608 -3.08239 0
-0.112786 -0.763204 0
0.0342642 -0.274885 0
-1.4044 -3.14217 0
-0.012451 -0.281124 0
-0.0377505 -1.21959 0
-1.67219 -3.11846 0
-1.80811 -3.77888 0
-0.0564171 -0.395343 0
-0.0577212 -0.924893 0
0.024389 -0.225731 0
-0.72199 -2.19542 0
0.020549 -0.466088 0
-1.15371 -2.73347 0
0.0312572 -0.586278 0
0.0695937 -0.530633 0
-1.10224 -1.83633 0
-0.375981 -0.825628 0
0.15714 -0.530368 0
0.115653 -0.273387 0
0.0598057 -0.489385 0
-0.271171 -2.57037 0
-0.505879 -1.44231 0
0.104045 -0.880487 0
-0.0140865 -0.202098 0
-0.677553 -1.44383 0
0.0105919 -0.790513 0
-0.0638407 -0.28348 0
0.140834 -0.438714 0
0.0990537 -0.2154 0
-0.436342 -2.2708 0
0.0692291 -0.266087 0
-0.590428 -1.57122 0
0.0570905 -0.579199 0
0.0407401 -0.646072 0
-1.24333 -2.93504 0
0.0129152 -0.0747121 0
-0.522337 -2.61541 0
0.0330864 -0.21648 0
0.142462 -0.668288 0
0.0465603 -0.366695 0
-0.33539 -0.819531 0
0.125831 -0.554708 0
0.131864 -0.628089 0
-0.750878 -1.80527 0
0.110188 -0.316432 0
0.0569891 -0.486191 0
-0.20637 -0.326504 0
0.553006 -1.30181 0
0.81821 -1.99991 0
1.32422 -1.62956 0
-0.218916 -0.356668 0
0.051146 -1.3106 0
-0.358693 -1.13304 0
0.18472 -0.474528 0
-0.0727144 -0.197779 0
0.035772 -0.381926 0
-0.128447 -0.311647 0
0.0358845 -0.958394 0
0.0596117 -0.601643 0
0.0607528 -0.705155 0
0.0281815 -0.175993 0
0.67804 -0.852115 0
0.0821959 -0.237326 0
-0.0131252 -0.621991 0
0.240048 -0.271472 0
-0.0672518 -0.388796 0
0.0242702 -0.657497 0
0.608929 -0.554853 0
0.00234853 -0.73996 0
-0.00585846 -0.657041 0
0.0260235 -0.111427 0
0.0333528 -0.53278 0
-0.315287 -0.535379 0
0.10591 -0.306152 0
0.0560794 -0.257107 0
-0.00330001 -0.624653 0
-0.0950461 -0.316166 0
0.854718 -0.969961 0
1.67761 -2.1287 0
-0.0941914 -0.511261 0
1.12246 -0.87117 0
0.0170123 -0.402454 0
1.39257 -1.45704 0
-0.238642 -1.03451 0
0.0230735 -0.106916 0
-0.0131376 -0.72197 0
0.0650759 -0.151398 0
0.432701 -1.84444 0
-0.0988806 -0.490021 0
0.0446839 -0.431853 0
0.22427 -0.440785 0
0.00021156 -0.706538 0
0.227676 -1.68855 0
-0.117996 -0.368112 0
1.69926 -1.98506 0
0.162899 -0.685963 0
0.761339 -0.812188 0
-0.125067 -0.299442 0
1.59639 -1.72363 0
-0.116526 -0.563712 0
0.233844 -0.491301 0
1.41257 -1.59081 0
0.117547 -0.853276 0
-0.156292 -0.271103 0
0.7918 -1.22584 0
-0.372529 -0.755068 0
-0.0152009 -0.390524 0
0.990291 -1.38739 0
-0.0238829 -0.252016 0
0.536069 -0.856604 0
-1.92942 -2.56304 0
-1.01796 -2.45037 0
-0.635051 -0.968231 0
-0.555661 -0.641438 0
-1.19884 -1.87461 0
-0.634811 -1.4234 0
-0.0398079 -0.274054 0
-0.487066 -2.0847 0
-0.0141214 -0.292651 0
-0.852446 -1.07553 0
0.010941 -0.151903 0
-0.0507795 -0.688954 0
0.0992616 -0.713245 0
0.0141661 -0.185672 0
-0.0242635 -0.240288 0
0.00274195 -0.101977 0
-0.019853 -0.210965 0
-0.000157641 -0.136939 0
-0.100459 -0.518671 0
-0.393493 -3.94097 0
-0.0518309 -0.26142 0
0.147691 -2.04996 0
-0.00296956 -0.180998 0
-1.01486 -0.931205 0
-0.135455 -0.81023 0
0.161461 -0.700278 0
-0.567809 -1.2095 0
-0.456588 -0.51918 0
-0.218953 -4.41228 0
-0.0203599 -0.252378 0
0.0420343 -0.709626 0
-0.236289 -1.53999 0
-0.649416 -2.16019 0
-1.23843 -2.26348 0
-0.00432245 -0.216358 0
0.0256137 -0.117 0
-0.148916 -1.00313 0
-0.0204598 -0.806886 0
0.0113495 -0.130304 0
-0.975913 -1.28058 0
-0.0136409 -0.110491 0
-0.0126151 -0.314087 0
0.0178106 -0.665854 0
-0.0414613 -0.198675 0
0.0301353 -0.130721 0
-0.209177 -0.59107 0
0.0174267 -0.76848 0
-0.0891523 -0.715395 0
0.00407005 -0.132156 0
-1.06585 -1.23289 0
-0.38754 -1.5657 0
-0.0439774 -0.178881 0
0.0494459 -0.270857 0
-0.285909 -0.74895 0
0.00529325 -0.121892 0
-0.265766 -1.15779 0
-1.10224 -3.21979 0
-0.75491 -2.03772 0
0.204646 -1.86183 0
-0.0559677 -0.20326 0
-0.0233549 -0.418594 0
-0.0135501 -0.172015 0
-0.336876 -0.963834 0
0.0506748 -0.205904 0
-0.091864 -0.381 0
-0.018323 -0.1783 0
-0.00158742 -0.249769 0
-0.100579 -0.326339 0
0.0326183 -0.264112 0
-0.646791 -0.729737 0
0.721436 -1.74882 0
-0.131222 -0.371367 0
-0.122985 -0.334317 0
-0.236284 -1.49439 0
-0.465536 -0.619868 0
-0.105477 -0.844421 0
0.433144 -2.61828 0
0.159412 -1.07525 0
0.15677 -0.691929 0
-0.0700922 -0.227019 0
-0.484751 -1.69446 0
0.457291 -1.19434 0
-0.002771 -0.286254 0
-0.3185 -2.14126 0
-0.547259 -1.95919 0
-0.0214551 -0.280508 0
-0.317422 -0.56309 0
-0.624659 -1.8077 0
-0.127204 -2.33161 0
-0.463839 -1.23051 0
0.00717509 -1.1863 0
0.0413378 -1.2904 0
-0.0090102 -0.285257 0
-0.242868 -0.718509 0
0.0178382 -0.15243 0
0.098791 -2.54118 0
-0.164906 -1.05914 0
-0.478722 -1.49171 0
-0.0114172 -0.263934 0
-0.119621 -1.77558 0
0.0908216 -1.39637 0
-0.0539855 -0.138169 0
0.220497 -2.08722 0
0.484099 -2.28084 0
0.000990265 -0.110707 0
-0.0657327 -1.21473 0
-0.00225574 -0.248829 0
0.177086 -3.38869 0
-0.375691 -2.06131 0
-0.272728 -0.463616 0
-0.552233 -1.30156 0
0.513962 -1.2945 0
-0.0180832 -0.302426 0
0.434295 -2.16062 0
-0.380089 -1.89658 0
-0.138484 -1.2435 0
0.75277 -2.36151 0
-0.401974 -1.5481 0
0.481705 -0.698064 0
-0.435296 -3.56915 0
0.810076 -2.93655 0
-0.943494 -0.879934 0
-0.524486 -3.0202 0
0.961346 -2.34932 0
-0.985743 -1.02018 0
-0.03734 -0.932499 0
-0.0115609 -0.238835 0
1.04258 -2.44824 0
