# vtk DataFile Version 2.0
Unstructured Grid by M++
ASCII
DATASET UNSTRUCTURED_GRID
POINTS 289 float
  0.562500   1.000000 0
  0.562500   0.625000 0
  0.625000   1.000000 0
  0.562500   0.937500 0
  0.562500   0.562500 0
  0.625000   0.937500 0
  0.562500   0.875000 0
  0.625000   0.750000 0
  0.625000   0.625000 0
  0.562500   0.812500 0
  0.562500   0.750000 0
  0.562500   0.687500 0
  0.625000   0.875000 0
  0.625000   0.812500 0
  0.625000   0.687500 0
  0.687500   0.125000 0
  0.875000   0.062500 0
  0.625000   0.125000 0
  0.625000   0.187500 0
  0.625000   0.250000 0
  0.812500   0.187500 0
  1.000000   0.125000 0
  0.687500   0.187500 0
  0.750000   0.125000 0
  0.937500   0.062500 0
  0.937500   0.125000 0
  0.750000   0.187500 0
  0.812500   0.062500 0
  0.812500   0.125000 0
  0.875000   0.687500 0
  0.187500   0.250000 0
  0.437500   0.250000 0
  0.375000   0.187500 0
  0.812500   0.625000 0
  0.125000   0.187500 0
  0.937500   0.750000 0
  0.250000   0.312500 0
  0.500000   0.312500 0
  0.625000   0.062500 0
  0.437500   0.500000 0
  0.375000   0.125000 0
  0.437500   0.187500 0
  0.437500   0.437500 0
  0.437500   0.375000 0
  0.875000   0.875000 0
  0.187500   0.375000 0
  0.687500   0.562500 0
  0.687500   0.625000 0
  0.000000   0.125000 0
  0.937500   0.625000 0
  0.250000   0.125000 0
  0.375000   0.062500 0
  0.375000   0.000000 0
  0.812500   0.500000 0
  0.125000   0.000000 0
  0.937500   0.937500 0
  0.250000   0.437500 0
  0.687500   0.875000 0
  0.687500   0.937500 0
  0.000000   0.437500 0
  0.500000   0.500000 0
  0.500000   0.437500 0
  0.750000   0.937500 0
  0.750000   1.000000 0
  0.062500   0.500000 0
  1.000000   1.000000 0
  0.312500   0.500000 0
  0.875000   0.562500 0
  0.187500   0.062500 0
  0.437500   0.125000 0
  0.437500   0.062500 0
  0.500000   0.375000 0
  0.937500   0.812500 0
  0.937500   0.875000 0
  0.250000   0.375000 0
  0.687500   0.812500 0
  0.000000   0.375000 0
  0.750000   0.562500 0
  0.062500   0.125000 0
  1.000000   0.562500 0
  1.000000   0.625000 0
  0.312500   0.125000 0
  0.562500   0.125000 0
  0.437500   0.000000 0
  0.875000   0.437500 0
  0.875000   0.500000 0
  0.187500   0.000000 0
  0.937500   0.562500 0
  0.937500   0.500000 0
  0.250000   0.062500 0
  0.687500   0.500000 0
  0.000000   0.062500 0
  0.500000   0.062500 0
  1.000000   0.875000 0
  1.000000   0.937500 0
  0.312500   0.437500 0
  0.750000   0.875000 0
  0.062500   0.437500 0
  0.812500   0.937500 0
  0.125000   0.500000 0
  0.375000   0.500000 0
  0.625000   0.562500 0
  0.625000   0.500000 0
  0.437500   0.312500 0
  0.875000   0.812500 0
  0.875000   0.750000 0
  0.187500   0.312500 0
  0.812500   0.687500 0
  0.812500   0.750000 0
  0.125000   0.250000 0
  0.375000   0.250000 0
  1.000000   0.687500 0
  0.312500   0.187500 0
  0.750000   0.687500 0
  0.750000   0.625000 0
  0.062500   0.187500 0
  0.562500   0.250000 0
  0.562500   0.187500 0
  0.375000   1.000000 0
  0.500000   0.562500 0
  0.500000   0.250000 0
  0.750000   0.250000 0
  0.500000   0.125000 0
  0.500000   0.187500 0
  1.000000   0.187500 0
  0.625000   0.375000 0
  0.875000   0.375000 0
  1.000000   0.437500 0
  0.312500   0.000000 0
  0.562500   0.000000 0
  0.812500   0.000000 0
  0.250000   0.687500 0
  0.000000   0.687500 0
  0.500000   1.000000 0
  0.250000   1.000000 0
  0.000000   1.000000 0
  0.437500   0.687500 0
  0.437500   0.625000 0
  0.187500   0.625000 0
  0.687500   0.750000 0
  0.000000   0.312500 0
  0.000000   0.250000 0
  0.375000   0.375000 0
  0.375000   0.312500 0
  0.812500   0.812500 0
  0.125000   0.312500 0
  0.875000   0.625000 0
  0.187500   0.187500 0
  0.187500   0.125000 0
  0.937500   1.000000 0
  0.250000   0.562500 0
  0.250000   0.500000 0
  0.687500   1.000000 0
  0.000000   0.500000 0
  0.687500   0.687500 0
  0.000000   0.187500 0
  0.937500   0.687500 0
  0.250000   0.250000 0
  0.250000   0.187500 0
  0.187500   0.687500 0
  0.000000   0.750000 0
  0.250000   0.750000 0
  0.125000   0.625000 0
  0.750000   0.750000 0
  0.062500   0.250000 0
  0.875000   0.937500 0
  0.187500   0.500000 0
  0.187500   0.437500 0
  0.812500   0.562500 0
  0.125000   0.125000 0
  0.125000   0.062500 0
  0.375000   0.625000 0
  0.375000   0.687500 0
  1.000000   0.750000 0
  0.312500   0.250000 0
  0.312500   0.312500 0
  0.812500   0.312500 0
  0.562500   0.312500 0
  0.375000   0.750000 0
  0.500000   0.625000 0
  0.250000   0.625000 0
  0.312500   0.687500 0
  0.750000   0.812500 0
  0.062500   0.312500 0
  0.062500   0.375000 0
  1.000000   0.812500 0
  0.312500   0.375000 0
  0.562500   0.375000 0
  0.687500   0.437500 0
  0.000000   0.000000 0
  0.500000   0.000000 0
  0.937500   0.437500 0
  0.250000   0.000000 0
  0.375000   0.437500 0
  0.812500   0.875000 0
  0.125000   0.375000 0
  0.125000   0.437500 0
  0.625000   0.437500 0
  1.000000   0.500000 0
  0.312500   0.062500 0
  0.750000   0.500000 0
  0.062500   0.000000 0
  0.062500   0.062500 0
  0.562500   0.062500 0
  0.062500   0.750000 0
  0.312500   0.750000 0
  0.312500   0.625000 0
  0.312500   0.562500 0
  0.062500   0.562500 0
  0.187500   1.000000 0
  0.437500   0.562500 0
  0.875000   1.000000 0
  0.187500   0.562500 0
  0.500000   0.937500 0
  0.250000   0.937500 0
  0.312500   1.000000 0
  0.125000   0.750000 0
  0.125000   0.687500 0
  1.000000   0.000000 0
  0.000000   0.937500 0
  0.000000   0.875000 0
  0.875000   0.125000 0
  0.875000   0.187500 0
  0.062500   0.812500 0
  0.312500   0.812500 0
  0.000000   0.812500 0
  0.000000   0.625000 0
  0.000000   0.562500 0
  0.062500   1.000000 0
  0.062500   0.937500 0
  0.937500   0.187500 0
  0.937500   0.250000 0
  0.062500   0.687500 0
  0.062500   0.625000 0
  0.125000   1.000000 0
  1.000000   0.250000 0
  1.000000   0.312500 0
  0.062500   0.875000 0
  0.125000   0.812500 0
  0.375000   0.812500 0
  0.125000   0.875000 0
  0.375000   0.937500 0
  0.375000   0.875000 0
  0.187500   0.750000 0
  0.187500   0.812500 0
  0.437500   0.812500 0
  0.187500   0.875000 0
  0.437500   0.875000 0
  0.375000   0.562500 0
  0.812500   1.000000 0
  0.125000   0.562500 0
  0.437500   1.000000 0
  0.437500   0.937500 0
  0.187500   0.937500 0
  0.125000   0.937500 0
  0.500000   0.687500 0
  0.500000   0.750000 0
  0.500000   0.812500 0
  0.250000   0.812500 0
  0.250000   0.875000 0
  0.500000   0.875000 0
  0.437500   0.750000 0
  0.312500   0.875000 0
  0.312500   0.937500 0
  0.687500   0.250000 0
  0.687500   0.312500 0
  0.937500   0.312500 0
  0.875000   0.250000 0
  0.625000   0.000000 0
  0.875000   0.000000 0
  0.687500   0.375000 0
  0.937500   0.375000 0
  0.875000   0.312500 0
  0.625000   0.312500 0
  0.687500   0.000000 0
  0.937500   0.000000 0
  0.750000   0.312500 0
  0.750000   0.375000 0
  1.000000   0.375000 0
  0.812500   0.250000 0
  0.562500   0.437500 0
  0.562500   0.500000 0
  0.687500   0.062500 0
  0.750000   0.437500 0
  0.750000   0.000000 0
  0.750000   0.062500 0
  1.000000   0.062500 0
  0.812500   0.375000 0
  0.812500   0.437500 0
CELLS 256 1280
4 169 170 148 68
4 151 166 56 167
4 195 45 196 167
4 54 170 201 202
4 109 34 30 147
4 40 32 81 112
4 192 89 86 68
4 48 91 78 202
4 99 64 196 97
4 71 43 37 103
4 74 186 56 95
4 109 164 34 115
4 50 81 158 112
4 122 69 92 70
4 195 145 45 106
4 110 143 174 175
4 157 30 158 147
4 40 69 32 41
4 50 158 148 147
4 141 155 164 115
4 122 123 69 41
4 142 186 143 175
4 60 39 61 42
4 40 51 69 70
4 120 31 123 41
4 157 174 36 175
4 50 148 89 68
4 48 78 155 115
4 52 83 51 70
4 151 56 66 95
4 71 61 43 42
4 169 148 34 147
4 100 193 39 42
4 40 81 51 199
4 110 174 32 112
4 109 30 145 106
4 100 66 193 95
4 169 34 78 115
4 190 92 83 70
4 50 89 81 199
4 54 86 170 68
4 74 56 45 167
4 142 143 43 103
4 153 59 64 97
4 99 196 166 167
4 169 78 170 202
4 142 193 186 95
4 192 128 89 199
4 74 45 36 106
4 110 31 143 103
4 76 184 59 97
4 142 43 193 42
4 52 51 128 199
4 189 201 91 202
4 120 37 31 103
4 74 36 186 175
4 195 196 184 97
4 141 164 140 183
4 157 158 174 112
4 109 145 164 183
4 195 184 145 183
4 110 32 31 41
4 157 36 30 106
4 76 140 184 183
4 171 172 206 181
4 178 172 261 136
4 256 261 255 136
4 256 257 261 245
4 180 150 206 207
4 60 119 39 210
4 118 215 241 263
4 178 205 172 181
4 216 243 238 244
4 162 217 233 232
4 180 206 131 181
4 179 137 119 210
4 216 204 217 232
4 220 237 219 229
4 216 217 243 159
4 259 258 262 224
4 240 254 237 229
4 153 64 227 208
4 161 205 258 224
4 240 237 238 223
4 226 227 233 208
4 234 228 254 229
4 171 248 137 210
4 160 132 204 232
4 180 131 138 159
4 133 251 213 252
4 171 206 248 207
4 162 138 217 159
4 161 258 243 244
4 220 225 237 223
4 151 150 166 212
4 260 247 257 245
4 259 262 214 263
4 151 66 150 207
4 234 254 209 253
4 162 233 250 208
4 242 241 262 263
4 171 137 172 136
4 161 243 131 159
4 160 204 225 223
4 161 131 205 181
4 179 255 137 136
4 216 238 204 223
4 100 39 248 210
4 260 213 247 252
4 226 233 132 232
4 134 214 215 263
4 180 138 150 212
4 178 261 239 245
4 259 246 258 244
4 178 239 205 224
4 240 238 246 244
4 242 262 239 224
4 99 250 64 208
4 240 246 254 253
4 242 239 247 245
4 135 219 228 229
4 99 166 250 212
4 259 214 246 253
4 118 241 251 252
4 100 248 66 207
4 134 209 214 253
4 162 250 138 212
4 242 247 241 252
4 71 187 61 280
4 102 281 197 280
4 122 92 82 203
4 17 18 82 117
4 122 82 123 117
4 19 264 273 265
4 267 279 222 20
4 125 273 270 265
4 267 272 279 176
4 19 116 18 117
4 21 25 286 24
4 23 28 26 20
4 23 285 28 27
4 218 286 275 24
4 85 53 84 288
4 235 236 231 266
4 221 222 28 20
4 267 222 231 230
4 268 38 129 203
4 125 270 197 188
4 126 287 272 176
4 277 270 276 265
4 267 231 272 266
4 125 197 187 280
4 190 129 92 203
4 277 276 287 176
4 19 18 264 22
4 17 82 38 203
4 102 197 90 188
4 126 84 287 288
4 284 130 285 27
4 121 276 264 265
4 71 37 187 177
4 120 123 116 117
4 198 88 127 191
4 221 16 25 24
4 23 26 15 22
4 121 279 276 176
4 235 231 124 230
4 125 187 273 177
4 278 271 236 266
4 277 287 283 288
4 284 285 274 282
4 278 127 271 191
4 269 275 16 24
4 200 283 53 288
4 23 15 285 282
4 121 26 279 20
4 21 124 25 230
4 19 273 116 177
4 200 90 283 188
4 126 271 84 191
4 269 16 130 27
4 17 38 15 282
4 221 25 222 230
4 121 264 26 22
4 120 116 37 177
4 60 61 281 280
4 277 283 270 188
4 126 272 271 266
4 268 274 38 282
4 85 84 88 191
4 17 15 18 22
4 221 28 16 27
4 93 94 73 55
4 85 88 67 87
4 80 49 79 87
4 44 104 73 72
4 146 33 67 168
4 211 165 149 55
4 8 47 14 154
4 105 104 108 144
4 105 108 29 107
4 7 139 13 75
4 44 165 194 98
4 200 53 77 168
4 8 1 101 4
4 2 5 152 58
4 260 6 213 3
4 105 35 104 72
4 96 57 182 75
4 7 14 139 154
4 146 29 33 107
4 7 13 10 9
4 12 13 57 75
4 85 67 53 168
4 44 73 165 55
4 63 152 62 58
4 8 101 47 46
4 96 182 194 144
4 60 281 119 4
4 12 5 6 3
4 173 185 35 72
4 65 149 94 55
4 146 67 49 87
4 114 113 47 154
4 163 108 182 144
4 12 6 13 9
4 173 35 111 156
4 163 182 139 75
4 260 257 6 9
4 105 29 35 156
4 163 139 113 154
4 256 10 257 9
4 146 49 29 156
4 163 113 108 107
4 80 111 49 156
4 102 101 281 4
4 12 57 5 58
4 44 194 104 144
4 96 194 62 98
4 2 0 5 3
4 93 73 185 72
4 179 119 1 4
4 200 77 90 46
4 114 33 113 107
4 7 10 14 11
4 96 62 57 58
4 133 213 0 3
4 102 90 101 46
4 256 255 10 11
4 63 62 249 98
4 114 47 77 46
4 179 1 255 11
4 211 249 165 98
4 114 77 33 168
4 198 79 88 87
4 8 14 1 11
CELL_TYPES 256
8
8
8
8
8
8
8
8
8
8
8
8
8
8
8
8
8
8
8
8
8
8
8
8
8
8
8
8
8
8
8
8
8
8
8
8
8
8
8
8
8
8
8
8
8
8
8
8
8
8
8
8
8
8
8
8
8
8
8
8
8
8
8
8
8
8
8
8
8
8
8
8
8
8
8
8
8
8
8
8
8
8
8
8
8
8
8
8
8
8
8
8
8
8
8
8
8
8
8
8
8
8
8
8
8
8
8
8
8
8
8
8
8
8
8
8
8
8
8
8
8
8
8
8
8
8
8
8
8
8
8
8
8
8
8
8
8
8
8
8
8
8
8
8
8
8
8
8
8
8
8
8
8
8
8
8
8
8
8
8
8
8
8
8
8
8
8
8
8
8
8
8
8
8
8
8
8
8
8
8
8
8
8
8
8
8
8
8
8
8
8
8
8
8
8
8
8
8
8
8
8
8
8
8
8
8
8
8
8
8
8
8
8
8
8
8
8
8
8
8
8
8
8
8
8
8
8
8
8
8
8
8
8
8
8
8
8
8
8
8
8
8
8
8
8
8
8
8
8
8
8
8
8
8
8
8
CELL_DATA 256
VECTORS vector_value float
0.0176468 -0.17547 0
1.47988 -1.09176 0
-0.0560196 -0.365708 0
-0.0065292 -0.208579 0
-0.0249896 -0.333514 0
-0.106738 -0.333748 0
0.036273 -0.139336 0
-0.0305587 -0.541105 0
0.201377 -0.165252 0
0.204638 -1.86095 0
0.691761 -0.731006 0
-0.1672 -0.428746 0
-0.0169608 -0.110419 0
-0.741421 -2.57039 0
-0.241502 -0.539856 0
0.0750351 -0.200219 0
0.0104952 -0.066475 0
-0.576967 -1.41024 0
0.02497 -0.0990096 0
-0.0863325 -0.236528 0
-0.911828 -3.72383 0
0.398351 -0.346716 0
0.0175455 -0.593049 0
-0.893737 -2.62515 0
-0.178707 -4.0868 0
0.021804 -0.0898687 0
0.0519774 -0.135317 0
-0.0683283 -0.440767 0
-0.653676 -2.84402 0
1.45785 -0.817314 0
0.312494 -1.10585 0
0.0139652 -0.261079 0
0.369914 -0.434144 0
-0.233847 -0.613901 0
-0.0781648 -0.219811 0
-0.192919 -0.543085 0
1.186 -0.770569 0
-0.056419 -0.260243 0
-0.520103 -2.34817 0
-0.0180037 -0.213051 0
0.00599128 -0.0934379 0
0.212437 -0.82461 0
0.745741 -1.38303 0
0.0419637 -0.0643508 0
0.924602 -0.910789 0
-0.0370166 -0.181959 0
0.92883 -0.581199 0
0.0089861 -0.300816 0
-0.130824 -0.383406 0
0.1396 -0.936082 0
-0.0065863 -0.0298611 0
1.05094 -1.23123 0
-0.40538 -1.39275 0
0.00297179 -0.542449 0
-0.431572 -3.74047 0
0.127627 -0.247629 0
-0.0207782 -0.0749649 0
-0.0522094 -0.116076 0
-0.0135793 -0.0587463 0
-0.221384 -0.30496 0
-0.0679336 -0.109002 0
-0.236492 -1.12569 0
-0.0291386 -0.0952788 0
-0.0146427 -0.0544789 0
-0.0361593 -0.0478658 0
-0.0419618 -0.0791544 0
-0.0625476 -0.603052 0
0.0182961 -0.622806 0
-0.0183293 -0.103214 0
-0.156525 -0.446255 0
1.26483 -0.678048 0
-0.00960727 -0.0157339 0
-0.00503081 -0.0677548 0
0.451143 -2.19015 0
-0.0069723 -0.0179857 0
-0.206835 -0.491759 0
0.341687 -1.81075 0
-0.327405 -2.35682 0
0.0414155 -0.112487 0
0.00900484 -0.0144087 0
-0.423163 -0.826192 0
0.25096 -0.329147 0
0.000183718 -0.00576606 0
-0.118578 -0.768404 0
0.146136 -0.831727 0
-0.949657 -1.07966 0
-0.216272 -0.242926 0
0.318039 -1.6079 0
0.0185143 -0.043718 0
1.47098 -1.18167 0
-0.126905 -0.146155 0
0.1831 -0.352326 0
-0.00189985 -0.0113247 0
0.000922345 -2.61825 0
0.817933 -0.809069 0
0.483317 -0.727193 0
0.1624 -0.1372 0
0.183447 -0.381706 0
-0.68272 -0.633733 0
0.613342 -1.38312 0
0.611042 -0.318056 0
-0.11738 -0.149905 0
0.00281612 -0.016226 0
0.340426 -2.26633 0
-0.000988938 -0.00486571 0
-0.172262 -0.57374 0
0.320933 -1.20091 0
-0.182879 -0.293386 0
1.59237 -1.07327 0
0.137505 -0.960636 0
0.779059 -0.704034 0
0.137166 -0.197839 0
0.00781834 -0.0614972 0
-0.0102064 -0.016952 0
0.00143208 -0.00724247 0
-0.105246 -0.140673 0
0.0664141 -0.0458354 0
0.992351 -0.732234 0
-0.200571 -0.274589 0
0.169612 -0.120778 0
-0.42359 -1.55972 0
1.3321 -1.43403 0
-0.0387446 -0.0964953 0
1.55016 -0.942825 0
-0.08369 -0.301406 0
0.0102671 -0.400526 0
0.693431 -1.11137 0
1.17725 -0.51174 0
-0.613465 -1.15596 0
-0.927458 -1.5055 0
-0.382804 -1.7006 0
1.21013 -2.64953 0
0.124898 -2.37006 0
0.0819597 -0.742993 0
0.0860644 -0.243651 0
-1.0596 -1.32682 0
0.0374594 -0.0978485 0
0.617591 -2.11293 0
-0.00114018 -1.2949 0
0.483502 -0.363393 0
0.528852 -0.564253 0
0.000196177 -1.29548 0
-0.671276 -1.47889 0
0.0296727 -1.66664 0
0.425822 -0.541614 0
-0.0552155 -0.349218 0
0.0738889 -1.04754 0
-3.08463 -1.67765 0
0.11598 -0.167412 0
-0.252747 -0.537903 0
0.00812797 -0.212003 0
-2.55661 -3.47756 0
-0.100376 -0.865229 0
-0.0367502 -0.368787 0
0.228132 -0.5295 0
0.387642 -1.60095 0
-2.41913 -1.04604 0
0.167119 -0.562679 0
0.253606 -0.696531 0
0.177527 -0.503604 0
-1.77111 -3.65637 0
0.581594 -3.79614 0
-0.000721968 -0.671892 0
0.130078 -1.09354 0
0.509873 -0.486443 0
0.115804 -0.246311 0
-0.057506 -1.53385 0
-2.21976 -3.27258 0
0.29173 -1.30336 0
-0.960654 -1.30578 0
0.277736 -0.892028 0
0.12545 -0.738282 0
-0.0326792 -0.996347 0
-2.12873 -2.693 0
0.781994 -0.75086 0
0.224543 -0.32564 0
-0.0862083 -1.32674 0
-0.210827 -1.88091 0
-4.02767 -2.75131 0
0.410616 -0.593162 0
0.0790218 -1.00534 0
0.884184 -1.40269 0
-0.00287421 -0.663135 0
0.277313 -0.55276 0
-0.940662 -4.62365 0
-0.221559 -0.521408 0
-2.07203 -1.54449 0
0.380811 -0.441685 0
0.224587 -1.33195 0
-0.0349824 -0.484716 0
1.03695 -0.959743 0
0.265317 -0.535874 0
-0.0919866 -0.367517 0
-0.308943 -0.852726 0
0.167078 -0.687044 0
-0.130216 -0.518566 0
-0.729273 -4.19082 0
-0.740802 -0.758096 0
0.194031 -0.317169 0
1.08126 -3.59964 0
1.10442 -4.7963 0
1.03899 -0.884662 0
-0.158641 -1.53419 0
-2.17209 -4.42606 0
0.0848257 -0.642126 0
0.0790263 -1.41964 0
1.5666 -1.95793 0
0.00204035 -0.53901 0
1.36633 -1.38984 0
0.519151 -0.547631 0
0.244366 -3.73034 0
0.404658 -1.22559 0
1.34608 -1.12085 0
-1.26026 -2.52255 0
-0.203503 -0.500204 0
-0.196218 -0.968912 0
0.0490765 -0.282784 0
0.885269 -2.34062 0
-0.0298035 -0.501551 0
1.03495 -1.81469 0
-0.0204038 -0.101953 0
-0.262545 -0.621797 0
-0.113222 -1.46798 0
0.166464 -0.561342 0
2.27093 -2.86634 0
1.37922 -1.99091 0
0.0647215 -0.163038 0
1.73293 -1.00623 0
0.855626 -1.8923 0
0.620681 -1.04713 0
0.753748 -0.615119 0
0.087762 -1.53295 0
0.358286 -1.97407 0
0.814052 -2.47422 0
0.0919359 -0.314768 0
0.029548 -0.718997 0
1.11388 -1.46191 0
0.218531 -2.09092 0
0.298733 -1.56802 0
0.563503 -1.38137 0
-0.0726123 -0.203486 0
-0.0417745 -0.875113 0
-0.411225 -1.02015 0
0.166225 -2.95125 0
0.231837 -0.715863 0
0.955661 -1.20118 0
1.02046 -1.30592 0
-0.143561 -0.479189 0
0.0649119 -1.39053 0
-0.334704 -1.00088 0
-0.0536767 -0.843705 0
-0.0191997 -1.10663 0
-0.698247 -1.36317 0
-0.220885 -2.50232 0
-0.0298894 -0.751545 0
0.150609 -0.708092 0
