# vtk DataFile Version 2.0
Unstructured Grid by M++
ASCII
DATASET UNSTRUCTURED_GRID
POINTS 81 float
  1.000000   0.625000 0
  0.750000   0.375000 0
  1.000000   0.000000 0
  0.875000   0.875000 0
  0.750000   0.125000 0
  1.000000   1.000000 0
  0.875000   0.250000 0
  0.625000   0.875000 0
  1.000000   0.750000 0
  0.875000   0.000000 0
  1.000000   0.250000 0
  0.625000   0.375000 0
  0.875000   0.500000 0
  0.625000   0.625000 0
  1.000000   0.500000 0
  0.750000   0.500000 0
  0.750000   1.000000 0
  1.000000   0.125000 0
  0.625000   0.250000 0
  0.750000   0.750000 0
  0.625000   0.000000 0
  0.125000   0.375000 0
  0.000000   0.500000 0
  0.125000   0.625000 0
  0.625000   1.000000 0
  1.000000   0.875000 0
  0.875000   0.125000 0
  0.500000   0.250000 0
  0.625000   0.500000 0
  0.250000   0.625000 0
  0.000000   0.625000 0
  0.375000   0.500000 0
  0.375000   0.000000 0
  0.000000   0.125000 0
  0.125000   0.875000 0
  0.875000   1.000000 0
  0.750000   0.250000 0
  0.375000   0.375000 0
  0.250000   0.375000 0
  0.625000   0.750000 0
  0.125000   0.125000 0
  0.500000   0.000000 0
  0.250000   0.875000 0
  0.125000   0.500000 0
  0.500000   0.375000 0
  0.125000   0.000000 0
  0.250000   0.750000 0
  0.250000   0.500000 0
  0.000000   0.875000 0
  0.875000   0.625000 0
  0.500000   0.750000 0
  0.750000   0.625000 0
  0.250000   0.000000 0
  0.375000   0.750000 0
  0.750000   0.875000 0
  0.625000   0.125000 0
  0.250000   0.250000 0
  0.375000   1.000000 0
  0.375000   0.250000 0
  0.000000   0.375000 0
  0.500000   1.000000 0
  0.875000   0.750000 0
  0.750000   0.000000 0
  0.375000   0.125000 0
  0.500000   0.875000 0
  0.000000   0.000000 0
  0.125000   0.750000 0
  0.500000   0.625000 0
  0.125000   0.250000 0
  0.500000   0.125000 0
  0.250000   1.000000 0
  0.250000   0.125000 0
  0.000000   1.000000 0
  0.375000   0.875000 0
  0.000000   0.750000 0
  0.375000   0.625000 0
  0.000000   0.250000 0
  0.125000   1.000000 0
  1.000000   0.375000 0
  0.500000   0.500000 0
  0.875000   0.375000 0
CELLS 64 320
4 56 71 58 63
4 27 58 69 63
4 41 69 32 63
4 76 33 68 40
4 27 44 58 37
4 79 31 44 37
4 56 38 68 21
4 56 58 38 37
4 52 32 71 63
4 47 38 31 37
4 76 68 59 21
4 22 59 43 21
4 65 45 33 40
4 47 43 38 21
4 52 71 45 40
4 56 68 71 40
4 74 30 66 23
4 46 66 29 23
4 22 43 30 23
4 72 48 77 34
4 46 53 42 73
4 50 64 53 73
4 70 42 57 73
4 74 66 48 34
4 46 42 66 34
4 47 29 43 23
4 70 77 42 34
4 60 57 64 73
4 79 67 31 75
4 47 31 29 75
4 50 53 67 75
4 46 29 53 75
4 10 78 6 80
4 36 6 1 80
4 15 1 12 80
4 36 4 6 26
4 14 12 78 80
4 2 17 9 26
4 36 18 4 55
4 15 28 1 11
4 62 4 20 55
4 10 6 17 26
4 27 18 44 11
4 62 9 4 26
4 27 69 18 55
4 36 1 18 11
4 41 20 69 55
4 79 44 28 11
4 16 24 54 7
4 19 54 39 7
4 50 39 64 7
4 8 25 61 3
4 60 64 24 7
4 79 28 67 13
4 19 51 61 49
4 8 61 0 49
4 15 51 28 13
4 19 39 51 13
4 50 67 39 13
4 19 61 54 3
4 14 0 12 49
4 5 35 25 3
4 15 12 51 49
4 16 54 35 3
CELL_TYPES 64
8
8
8
8
8
8
8
8
8
8
8
8
8
8
8
8
8
8
8
8
8
8
8
8
8
8
8
8
8
8
8
8
8
8
8
8
8
8
8
8
8
8
8
8
8
8
8
8
8
8
8
8
8
8
8
8
8
8
8
8
8
8
8
8
CELL_DATA 64
VECTORS vector_value float
-0.675849 -1.32862 0
0.036182 -0.176929 0
0.00776752 -0.0405154 0
-0.0356292 -1.35568 0
-0.118211 -0.386644 0
-0.346144 -0.756095 0
-0.120179 -0.41702 0
-0.222154 -1.58908 0
-0.0375184 -0.364665 0
-0.506094 -1.47366 0
-0.120576 -1.49719 0
-0.345369 -0.75757 0
-0.472915 -2.24114 0
-0.960505 -0.813672 0
-0.596511 -1.10057 0
-0.550905 -1.01265 0
0.210771 -0.560901 0
0.442234 -0.478303 0
0.0155839 -0.4327 0
-0.0874981 -1.23125 0
0.282519 -0.840657 0
0.188561 -1.07973 0
0.624473 -1.31695 0
0.136242 -1.10514 0
0.0558036 -0.105877 0
0.0360506 -0.363683 0
0.303168 -0.288679 0
0.589274 -0.463405 0
-0.203054 -0.5754 0
-0.199238 -2.15607 0
-0.379714 -0.705913 0
-0.296433 -1.62608 0
0.55174 -2.06557 0
0.932688 -1.3843 0
0.120644 -1.1822 0
0.4179 -1.12173 0
-0.0413514 -1.36541 0
0.341505 -3.36667 0
-0.0112629 -0.323964 0
0.513261 -1.24843 0
-0.00754204 -0.103675 0
0.149348 -2.57997 0
0.0106189 -0.0789345 0
0.132148 -0.41317 0
-0.000114255 -0.100456 0
0.298588 -0.581259 0
-0.0073085 -0.369597 0
0.0384651 -0.402962 0
-0.0912356 -0.246751 0
0.46982 -0.899281 0
0.387882 -1.7983 0
-0.0413716 -0.585522 0
0.323531 -2.17511 0
-0.230752 -0.744371 0
0.595989 -1.70849 0
0.415029 -1.00599 0
-0.24993 -1.37145 0
0.40872 -1.19494 0
0.0447713 -0.71939 0
-0.0614996 -1.58549 0
0.0296916 -1.69996 0
-0.164339 -0.790455 0
-0.0276996 -0.656364 0
-0.0148922 -1.4874 0
