# vtk DataFile Version 2.0
Unstructured Grid by M++
ASCII
DATASET UNSTRUCTURED_GRID
POINTS 81 float
  1.000000   0.625000 0
  0.750000   0.375000 0
  1.000000   0.000000 0
  0.875000   0.875000 0
  0.750000   0.125000 0
  1.000000   1.000000 0
  0.875000   0.250000 0
  0.625000   0.875000 0
  1.000000   0.750000 0
  0.875000   0.000000 0
  1.000000   0.250000 0
  0.625000   0.375000 0
  0.875000   0.500000 0
  0.625000   0.625000 0
  1.000000   0.500000 0
  0.750000   0.500000 0
  0.750000   1.000000 0
  1.000000   0.125000 0
  0.625000   0.250000 0
  0.750000   0.750000 0
  0.625000   0.000000 0
  0.125000   0.375000 0
  0.000000   0.500000 0
  0.125000   0.625000 0
  0.625000   1.000000 0
  1.000000   0.875000 0
  0.875000   0.125000 0
  0.500000   0.250000 0
  0.625000   0.500000 0
  0.250000   0.625000 0
  0.000000   0.625000 0
  0.375000   0.500000 0
  0.375000   0.000000 0
  0.000000   0.125000 0
  0.125000   0.875000 0
  0.875000   1.000000 0
  0.750000   0.250000 0
  0.375000   0.375000 0
  0.250000   0.375000 0
  0.625000   0.750000 0
  0.125000   0.125000 0
  0.500000   0.000000 0
  0.250000   0.875000 0
  0.125000   0.500000 0
  0.500000   0.375000 0
  0.125000   0.000000 0
  0.250000   0.750000 0
  0.250000   0.500000 0
  0.000000   0.875000 0
  0.875000   0.625000 0
  0.500000   0.750000 0
  0.750000   0.625000 0
  0.250000   0.000000 0
  0.375000   0.750000 0
  0.750000   0.875000 0
  0.625000   0.125000 0
  0.250000   0.250000 0
  0.375000   1.000000 0
  0.375000   0.250000 0
  0.000000   0.375000 0
  0.500000   1.000000 0
  0.875000   0.750000 0
  0.750000   0.000000 0
  0.375000   0.125000 0
  0.500000   0.875000 0
  0.000000   0.000000 0
  0.125000   0.750000 0
  0.500000   0.625000 0
  0.125000   0.250000 0
  0.500000   0.125000 0
  0.250000   1.000000 0
  0.250000   0.125000 0
  0.000000   1.000000 0
  0.375000   0.875000 0
  0.000000   0.750000 0
  0.375000   0.625000 0
  0.000000   0.250000 0
  0.125000   1.000000 0
  1.000000   0.375000 0
  0.500000   0.500000 0
  0.875000   0.375000 0
CELLS 64 320
4 56 71 58 63
4 27 58 69 63
4 41 69 32 63
4 76 33 68 40
4 27 44 58 37
4 79 31 44 37
4 56 38 68 21
4 56 58 38 37
4 52 32 71 63
4 47 38 31 37
4 76 68 59 21
4 22 59 43 21
4 65 45 33 40
4 47 43 38 21
4 52 71 45 40
4 56 68 71 40
4 74 30 66 23
4 46 66 29 23
4 22 43 30 23
4 72 48 77 34
4 46 53 42 73
4 50 64 53 73
4 70 42 57 73
4 74 66 48 34
4 46 42 66 34
4 47 29 43 23
4 70 77 42 34
4 60 57 64 73
4 79 67 31 75
4 47 31 29 75
4 50 53 67 75
4 46 29 53 75
4 10 78 6 80
4 36 6 1 80
4 15 1 12 80
4 36 4 6 26
4 14 12 78 80
4 2 17 9 26
4 36 18 4 55
4 15 28 1 11
4 62 4 20 55
4 10 6 17 26
4 27 18 44 11
4 62 9 4 26
4 27 69 18 55
4 36 1 18 11
4 41 20 69 55
4 79 44 28 11
4 16 24 54 7
4 19 54 39 7
4 50 39 64 7
4 8 25 61 3
4 60 64 24 7
4 79 28 67 13
4 19 51 61 49
4 8 61 0 49
4 15 51 28 13
4 19 39 51 13
4 50 67 39 13
4 19 61 54 3
4 14 0 12 49
4 5 35 25 3
4 15 12 51 49
4 16 54 35 3
CELL_TYPES 64
8
8
8
8
8
8
8
8
8
8
8
8
8
8
8
8
8
8
8
8
8
8
8
8
8
8
8
8
8
8
8
8
8
8
8
8
8
8
8
8
8
8
8
8
8
8
8
8
8
8
8
8
8
8
8
8
8
8
8
8
8
8
8
8
CELL_DATA 64
VECTORS vector_value float
-0.253964 -0.71992 0
-0.291005 -0.372389 0
-0.317454 -0.623384 0
-0.234789 -0.613433 0
0.00140972 -0.534912 0
0.360354 -0.972264 0
-0.348377 -0.940858 0
-0.34994 -1.00841 0
-0.250679 -0.799798 0
-0.111086 -1.42705 0
-0.0151616 -0.222593 0
-0.00416813 -0.23308 0
-0.117888 -0.923872 0
-0.059088 -0.469508 0
-0.215921 -1.01122 0
-0.386638 -1.05716 0
0.395271 -0.625881 0
1.57451 -2.32701 0
-0.0124135 -0.184644 0
0.192877 -0.657899 0
-0.0555822 -0.169699 0
0.00790529 -0.0444098 0
-0.649436 -0.870699 0
-0.185312 -1.21663 0
-0.545412 -1.904 0
0.163155 -0.566057 0
-0.147692 -1.70236 0
0.183298 -0.313681 0
0.429972 -0.273817 0
1.60926 -2.24204 0
0.0260317 -0.0352006 0
0.184656 -0.325258 0
-0.240234 -0.615063 0
-0.123858 -0.552903 0
0.0866568 -0.45777 0
0.0795803 -1.24161 0
0.13617 -0.767661 0
-0.0455669 -0.155116 0
0.887888 -1.94535 0
-0.00663704 -1.18249 0
0.664834 -1.3336 0
-0.0313095 -0.264934 0
0.501489 -2.02286 0
0.811199 -2.94496 0
0.194069 -1.78521 0
0.480547 -2.10241 0
0.00909161 -0.208062 0
0.10175 -2.49017 0
0.214209 -1.17954 0
0.128627 -2.0151 0
0.102407 -0.764953 0
-0.0190483 -1.46699 0
0.68521 -1.29212 0
-0.36024 -1.56809 0
-0.555969 -0.238369 0
-0.479671 -1.15126 0
-0.480242 -2.03848 0
-0.511551 -2.31272 0
-0.194563 -0.984296 0
-0.193786 -0.418221 0
0.0264802 -0.445149 0
0.223143 -1.35551 0
-0.0474029 -0.681721 0
0.206373 -0.628182 0
