# vtk DataFile Version 2.0
Unstructured Grid by M++
ASCII
DATASET UNSTRUCTURED_GRID
POINTS 81 float
  1.000000   0.625000 0
  0.750000   0.375000 0
  1.000000   0.000000 0
  0.875000   0.875000 0
  0.750000   0.125000 0
  1.000000   1.000000 0
  0.875000   0.250000 0
  0.625000   0.875000 0
  1.000000   0.750000 0
  0.875000   0.000000 0
  1.000000   0.250000 0
  0.625000   0.375000 0
  0.875000   0.500000 0
  0.625000   0.625000 0
  1.000000   0.500000 0
  0.750000   0.500000 0
  0.750000   1.000000 0
  1.000000   0.125000 0
  0.625000   0.250000 0
  0.750000   0.750000 0
  0.625000   0.000000 0
  0.125000   0.375000 0
  0.000000   0.500000 0
  0.125000   0.625000 0
  0.625000   1.000000 0
  1.000000   0.875000 0
  0.875000   0.125000 0
  0.500000   0.250000 0
  0.625000   0.500000 0
  0.250000   0.625000 0
  0.000000   0.625000 0
  0.375000   0.500000 0
  0.375000   0.000000 0
  0.000000   0.125000 0
  0.125000   0.875000 0
  0.875000   1.000000 0
  0.750000   0.250000 0
  0.375000   0.375000 0
  0.250000   0.375000 0
  0.625000   0.750000 0
  0.125000   0.125000 0
  0.500000   0.000000 0
  0.250000   0.875000 0
  0.125000   0.500000 0
  0.500000   0.375000 0
  0.125000   0.000000 0
  0.250000   0.750000 0
  0.250000   0.500000 0
  0.000000   0.875000 0
  0.875000   0.625000 0
  0.500000   0.750000 0
  0.750000   0.625000 0
  0.250000   0.000000 0
  0.375000   0.750000 0
  0.750000   0.875000 0
  0.625000   0.125000 0
  0.250000   0.250000 0
  0.375000   1.000000 0
  0.375000   0.250000 0
  0.000000   0.375000 0
  0.500000   1.000000 0
  0.875000   0.750000 0
  0.750000   0.000000 0
  0.375000   0.125000 0
  0.500000   0.875000 0
  0.000000   0.000000 0
  0.125000   0.750000 0
  0.500000   0.625000 0
  0.125000   0.250000 0
  0.500000   0.125000 0
  0.250000   1.000000 0
  0.250000   0.125000 0
  0.000000   1.000000 0
  0.375000   0.875000 0
  0.000000   0.750000 0
  0.375000   0.625000 0
  0.000000   0.250000 0
  0.125000   1.000000 0
  1.000000   0.375000 0
  0.500000   0.500000 0
  0.875000   0.375000 0
CELLS 64 320
4 56 71 58 63
4 27 58 69 63
4 41 69 32 63
4 76 33 68 40
4 27 44 58 37
4 79 31 44 37
4 56 38 68 21
4 56 58 38 37
4 52 32 71 63
4 47 38 31 37
4 76 68 59 21
4 22 59 43 21
4 65 45 33 40
4 47 43 38 21
4 52 71 45 40
4 56 68 71 40
4 74 30 66 23
4 46 66 29 23
4 22 43 30 23
4 72 48 77 34
4 46 53 42 73
4 50 64 53 73
4 70 42 57 73
4 74 66 48 34
4 46 42 66 34
4 47 29 43 23
4 70 77 42 34
4 60 57 64 73
4 79 67 31 75
4 47 31 29 75
4 50 53 67 75
4 46 29 53 75
4 10 78 6 80
4 36 6 1 80
4 15 1 12 80
4 36 4 6 26
4 14 12 78 80
4 2 17 9 26
4 36 18 4 55
4 15 28 1 11
4 62 4 20 55
4 10 6 17 26
4 27 18 44 11
4 62 9 4 26
4 27 69 18 55
4 36 1 18 11
4 41 20 69 55
4 79 44 28 11
4 16 24 54 7
4 19 54 39 7
4 50 39 64 7
4 8 25 61 3
4 60 64 24 7
4 79 28 67 13
4 19 51 61 49
4 8 61 0 49
4 15 51 28 13
4 19 39 51 13
4 50 67 39 13
4 19 61 54 3
4 14 0 12 49
4 5 35 25 3
4 15 12 51 49
4 16 54 35 3
CELL_TYPES 64
8
8
8
8
8
8
8
8
8
8
8
8
8
8
8
8
8
8
8
8
8
8
8
8
8
8
8
8
8
8
8
8
8
8
8
8
8
8
8
8
8
8
8
8
8
8
8
8
8
8
8
8
8
8
8
8
8
8
8
8
8
8
8
8
CELL_DATA 64
VECTORS vector_value float
-0.00470572 -0.424752 0
0.171883 -0.209972 0
0.0527845 -0.100178 0
0.229992 -3.10835 0
0.185134 -0.514587 0
-0.0241799 -0.238204 0
0.275051 -0.32274 0
0.22723 -0.230127 0
-0.051276 -0.096414 0
-0.0656588 -0.271608 0
0.0494071 -3.26079 0
-0.199403 -3.27214 0
0.430006 -2.00889 0
-0.233647 -0.405027 0
0.491023 -1.53144 0
0.0159331 -0.169721 0
-0.0858381 -1.7779 0
-0.819095 -0.626757 0
-0.499214 -2.69747 0
-0.299606 -1.47679 0
-0.0913145 -1.33122 0
-0.0481976 -2.00776 0
0.0477672 -1.70159 0
-0.0581198 -1.64675 0
-0.0905846 -0.061122 0
-0.694924 -0.737146 0
-0.136528 -0.178434 0
-0.552312 -1.2097 0
0.0244351 -0.906961 0
-0.284566 -0.169151 0
0.0124173 -2.37011 0
-0.874558 -0.727157 0
-0.0371023 -0.395248 0
0.0267301 -0.0763855 0
0.0239427 -0.0511801 0
0.0501766 -0.235284 0
0.0459047 -0.371225 0
0.0300152 -0.341154 0
0.434321 -3.07224 0
0.29258 -0.612905 0
0.0453601 -2.0236 0
-0.0121449 -0.285667 0
0.204851 -0.579016 0
0.472449 -1.07141 0
0.393186 -0.494014 0
1.01317 -2.6211 0
-0.0502251 -0.826917 0
1.04457 -2.77771 0
-0.00266912 -0.62268 0
-1.05022 -0.152181 0
-0.800317 -0.891067 0
-0.304981 -0.819081 0
-0.40359 -0.501742 0
0.378215 -2.66432 0
-0.565377 -0.798037 0
-0.045394 -0.294924 0
-0.209057 -0.405173 0
-0.59156 -0.0830057 0
-0.425437 -1.32211 0
-0.730678 -1.09082 0
0.0162706 -0.269989 0
-0.0169884 -0.977154 0
0.0393921 -0.149786 0
0.138965 -1.33191 0
