# vtk DataFile Version 2.0
Unstructured Grid by M++
ASCII
DATASET UNSTRUCTURED_GRID
POINTS 81 float
  1.000000   0.625000 0
  0.750000   0.375000 0
  1.000000   0.000000 0
  0.875000   0.875000 0
  0.750000   0.125000 0
  1.000000   1.000000 0
  0.875000   0.250000 0
  0.625000   0.875000 0
  1.000000   0.750000 0
  0.875000   0.000000 0
  1.000000   0.250000 0
  0.625000   0.375000 0
  0.875000   0.500000 0
  0.625000   0.625000 0
  1.000000   0.500000 0
  0.750000   0.500000 0
  0.750000   1.000000 0
  1.000000   0.125000 0
  0.625000   0.250000 0
  0.750000   0.750000 0
  0.625000   0.000000 0
  0.125000   0.375000 0
  0.000000   0.500000 0
  0.125000   0.625000 0
  0.625000   1.000000 0
  1.000000   0.875000 0
  0.875000   0.125000 0
  0.500000   0.250000 0
  0.625000   0.500000 0
  0.250000   0.625000 0
  0.000000   0.625000 0
  0.375000   0.500000 0
  0.375000   0.000000 0
  0.000000   0.125000 0
  0.125000   0.875000 0
  0.875000   1.000000 0
  0.750000   0.250000 0
  0.375000   0.375000 0
  0.250000   0.375000 0
  0.625000   0.750000 0
  0.125000   0.125000 0
  0.500000   0.000000 0
  0.250000   0.875000 0
  0.125000   0.500000 0
  0.500000   0.375000 0
  0.125000   0.000000 0
  0.250000   0.750000 0
  0.250000   0.500000 0
  0.000000   0.875000 0
  0.875000   0.625000 0
  0.500000   0.750000 0
  0.750000   0.625000 0
  0.250000   0.000000 0
  0.375000   0.750000 0
  0.750000   0.875000 0
  0.625000   0.125000 0
  0.250000   0.250000 0
  0.375000   1.000000 0
  0.375000   0.250000 0
  0.000000   0.375000 0
  0.500000   1.000000 0
  0.875000   0.750000 0
  0.750000   0.000000 0
  0.375000   0.125000 0
  0.500000   0.875000 0
  0.000000   0.000000 0
  0.125000   0.750000 0
  0.500000   0.625000 0
  0.125000   0.250000 0
  0.500000   0.125000 0
  0.250000   1.000000 0
  0.250000   0.125000 0
  0.000000   1.000000 0
  0.375000   0.875000 0
  0.000000   0.750000 0
  0.375000   0.625000 0
  0.000000   0.250000 0
  0.125000   1.000000 0
  1.000000   0.375000 0
  0.500000   0.500000 0
  0.875000   0.375000 0
CELLS 64 320
4 56 71 58 63
4 27 58 69 63
4 41 69 32 63
4 76 33 68 40
4 27 44 58 37
4 79 31 44 37
4 56 38 68 21
4 56 58 38 37
4 52 32 71 63
4 47 38 31 37
4 76 68 59 21
4 22 59 43 21
4 65 45 33 40
4 47 43 38 21
4 52 71 45 40
4 56 68 71 40
4 74 30 66 23
4 46 66 29 23
4 22 43 30 23
4 72 48 77 34
4 46 53 42 73
4 50 64 53 73
4 70 42 57 73
4 74 66 48 34
4 46 42 66 34
4 47 29 43 23
4 70 77 42 34
4 60 57 64 73
4 79 67 31 75
4 47 31 29 75
4 50 53 67 75
4 46 29 53 75
4 10 78 6 80
4 36 6 1 80
4 15 1 12 80
4 36 4 6 26
4 14 12 78 80
4 2 17 9 26
4 36 18 4 55
4 15 28 1 11
4 62 4 20 55
4 10 6 17 26
4 27 18 44 11
4 62 9 4 26
4 27 69 18 55
4 36 1 18 11
4 41 20 69 55
4 79 44 28 11
4 16 24 54 7
4 19 54 39 7
4 50 39 64 7
4 8 25 61 3
4 60 64 24 7
4 79 28 67 13
4 19 51 61 49
4 8 61 0 49
4 15 51 28 13
4 19 39 51 13
4 50 67 39 13
4 19 61 54 3
4 14 0 12 49
4 5 35 25 3
4 15 12 51 49
4 16 54 35 3
CELL_TYPES 64
8
8
8
8
8
8
8
8
8
8
8
8
8
8
8
8
8
8
8
8
8
8
8
8
8
8
8
8
8
8
8
8
8
8
8
8
8
8
8
8
8
8
8
8
8
8
8
8
8
8
8
8
8
8
8
8
8
8
8
8
8
8
8
8
CELL_DATA 64
VECTORS vector_value float
0.129797 -2.09398 0
0.288503 -2.469 0
0.0142014 -2.03225 0
0.000729493 -0.00232202 0
0.348721 -2.03673 0
-0.505659 -1.40214 0
0.0652554 -0.147353 0
0.398816 -2.6461 0
-0.0664267 -2.25773 0
0.0762543 -2.92057 0
0.0145891 -0.0164806 0
0.033999 -0.052387 0
-0.000339219 -0.00276499 0
0.216125 -0.283598 0
0.00382256 -0.0891582 0
0.0176329 -0.106092 0
0.214799 -0.660654 0
0.366043 -0.544251 0
0.118757 -0.233895 0
0.0463697 -0.901515 0
0.199392 -0.373238 0
0.216208 -0.28101 0
0.0919048 -0.533358 0
0.0696569 -0.886504 0
0.516031 -1.25118 0
0.368795 -0.467468 0
-0.100412 -1.44101 0
0.668997 -0.630191 0
-0.547674 -1.01473 0
-0.0283492 -2.11346 0
-0.346705 -0.484226 0
0.466754 -1.22339 0
0.291996 -1.3946 0
0.0604563 -0.283758 0
0.222229 -1.43708 0
0.051968 -0.0952297 0
0.241727 -0.646703 0
-0.0151018 -1.55261 0
-0.043337 -0.14948 0
-0.292685 -0.63192 0
0.0625761 -0.0896576 0
0.0397835 -1.56642 0
-0.371389 -1.02942 0
0.0341447 -0.198202 0
0.0665504 -1.51747 0
-0.390073 -0.445557 0
0.108212 -1.77763 0
-0.329616 -0.625594 0
-0.0602267 -1.6587 0
-0.309282 -2.67125 0
0.39831 -1.62515 0
-0.0618002 -0.122241 0
0.518126 -1.1997 0
-0.481609 -1.04834 0
0.295275 -0.5652 0
0.0985684 -0.319534 0
-0.0428477 -1.15958 0
0.381948 -2.47388 0
-0.661262 -1.72886 0
-0.294238 -0.789422 0
0.0613231 -0.310836 0
-0.382706 -0.390022 0
0.484683 -1.6517 0
-0.697113 -1.2455 0
