# vtk DataFile Version 2.0
Unstructured Grid by M++
ASCII
DATASET UNSTRUCTURED_GRID
POINTS 81 float
  1.000000   0.625000 0
  0.750000   0.375000 0
  1.000000   0.000000 0
  0.875000   0.875000 0
  0.750000   0.125000 0
  1.000000   1.000000 0
  0.875000   0.250000 0
  0.625000   0.875000 0
  1.000000   0.750000 0
  0.875000   0.000000 0
  1.000000   0.250000 0
  0.625000   0.375000 0
  0.875000   0.500000 0
  0.625000   0.625000 0
  1.000000   0.500000 0
  0.750000   0.500000 0
  0.750000   1.000000 0
  1.000000   0.125000 0
  0.625000   0.250000 0
  0.750000   0.750000 0
  0.625000   0.000000 0
  0.125000   0.375000 0
  0.000000   0.500000 0
  0.125000   0.625000 0
  0.625000   1.000000 0
  1.000000   0.875000 0
  0.875000   0.125000 0
  0.500000   0.250000 0
  0.625000   0.500000 0
  0.250000   0.625000 0
  0.000000   0.625000 0
  0.375000   0.500000 0
  0.375000   0.000000 0
  0.000000   0.125000 0
  0.125000   0.875000 0
  0.875000   1.000000 0
  0.750000   0.250000 0
  0.375000   0.375000 0
  0.250000   0.375000 0
  0.625000   0.750000 0
  0.125000   0.125000 0
  0.500000   0.000000 0
  0.250000   0.875000 0
  0.125000   0.500000 0
  0.500000   0.375000 0
  0.125000   0.000000 0
  0.250000   0.750000 0
  0.250000   0.500000 0
  0.000000   0.875000 0
  0.875000   0.625000 0
  0.500000   0.750000 0
  0.750000   0.625000 0
  0.250000   0.000000 0
  0.375000   0.750000 0
  0.750000   0.875000 0
  0.625000   0.125000 0
  0.250000   0.250000 0
  0.375000   1.000000 0
  0.375000   0.250000 0
  0.000000   0.375000 0
  0.500000   1.000000 0
  0.875000   0.750000 0
  0.750000   0.000000 0
  0.375000   0.125000 0
  0.500000   0.875000 0
  0.000000   0.000000 0
  0.125000   0.750000 0
  0.500000   0.625000 0
  0.125000   0.250000 0
  0.500000   0.125000 0
  0.250000   1.000000 0
  0.250000   0.125000 0
  0.000000   1.000000 0
  0.375000   0.875000 0
  0.000000   0.750000 0
  0.375000   0.625000 0
  0.000000   0.250000 0
  0.125000   1.000000 0
  1.000000   0.375000 0
  0.500000   0.500000 0
  0.875000   0.375000 0
CELLS 64 320
4 56 71 58 63
4 27 58 69 63
4 41 69 32 63
4 76 33 68 40
4 27 44 58 37
4 79 31 44 37
4 56 38 68 21
4 56 58 38 37
4 52 32 71 63
4 47 38 31 37
4 76 68 59 21
4 22 59 43 21
4 65 45 33 40
4 47 43 38 21
4 52 71 45 40
4 56 68 71 40
4 74 30 66 23
4 46 66 29 23
4 22 43 30 23
4 72 48 77 34
4 46 53 42 73
4 50 64 53 73
4 70 42 57 73
4 74 66 48 34
4 46 42 66 34
4 47 29 43 23
4 70 77 42 34
4 60 57 64 73
4 79 67 31 75
4 47 31 29 75
4 50 53 67 75
4 46 29 53 75
4 10 78 6 80
4 36 6 1 80
4 15 1 12 80
4 36 4 6 26
4 14 12 78 80
4 2 17 9 26
4 36 18 4 55
4 15 28 1 11
4 62 4 20 55
4 10 6 17 26
4 27 18 44 11
4 62 9 4 26
4 27 69 18 55
4 36 1 18 11
4 41 20 69 55
4 79 44 28 11
4 16 24 54 7
4 19 54 39 7
4 50 39 64 7
4 8 25 61 3
4 60 64 24 7
4 79 28 67 13
4 19 51 61 49
4 8 61 0 49
4 15 51 28 13
4 19 39 51 13
4 50 67 39 13
4 19 61 54 3
4 14 0 12 49
4 5 35 25 3
4 15 12 51 49
4 16 54 35 3
CELL_TYPES 64
8
8
8
8
8
8
8
8
8
8
8
8
8
8
8
8
8
8
8
8
8
8
8
8
8
8
8
8
8
8
8
8
8
8
8
8
8
8
8
8
8
8
8
8
8
8
8
8
8
8
8
8
8
8
8
8
8
8
8
8
8
8
8
8
CELL_DATA 64
VECTORS vector_value float
-0.0845604 -1.21431 0
-0.0944343 -2.04671 0
-0.0122198 -0.881157 0
-0.00634152 -0.293615 0
-0.00818598 -1.54006 0
0.22143 -1.06727 0
0.0695206 -0.63712 0
0.21189 -1.17806 0
-0.25528 -1.78823 0
0.336186 -1.23115 0
-0.0462546 -0.196938 0
0.0655955 -0.157162 0
0.0184072 -0.240241 0
0.146978 -0.984997 0
-0.00683483 -0.445391 0
0.00874246 -0.325448 0
0.0720709 -0.576936 0
0.433603 -1.88257 0
0.0884718 -0.381257 0
0.253458 -0.565309 0
-0.0200521 -0.214039 0
0.00110758 -0.404755 0
-0.132077 -0.249609 0
-0.0624601 -0.61166 0
-0.0620562 -1.95796 0
0.479713 -0.763717 0
-0.0337413 -1.89755 0
0.518251 -0.695731 0
-0.0951251 -0.517921 0
0.707811 -1.63294 0
0.0527005 -0.495149 0
0.113789 -0.208947 0
0.629501 -1.90203 0
1.14503 -0.55311 0
0.5462 -0.474774 0
0.438693 -0.776024 0
0.304399 -0.896676 0
-0.0258984 -2.62338 0
0.0916924 -0.367305 0
0.659329 -1.75689 0
0.0970547 -0.800648 0
0.177752 -2.64974 0
-0.0566846 -0.855913 0
-0.137323 -0.685533 0
0.114221 -0.32685 0
0.755203 -1.13677 0
0.378807 -0.535423 0
0.14254 -1.43108 0
-0.747028 -1.07497 0
-0.0444481 -0.846577 0
-0.0384814 -2.66878 0
-0.0794877 -0.839315 0
0.0126071 -1.92199 0
0.197544 -1.67188 0
-0.357156 -0.60473 0
-0.142711 -0.439771 0
0.449935 -2.05876 0
-0.036328 -1.20629 0
0.189852 -2.58561 0
-0.0589115 -0.456911 0
0.0424454 -0.318216 0
-0.0986279 -0.749151 0
0.286382 -0.655302 0
-0.419656 -0.845695 0
