# vtk DataFile Version 2.0
Unstructured Grid by M++
ASCII
DATASET UNSTRUCTURED_GRID
POINTS 81 float
  1.000000   0.625000 0
  0.750000   0.375000 0
  1.000000   0.000000 0
  0.875000   0.875000 0
  0.750000   0.125000 0
  1.000000   1.000000 0
  0.875000   0.250000 0
  0.625000   0.875000 0
  1.000000   0.750000 0
  0.875000   0.000000 0
  1.000000   0.250000 0
  0.625000   0.375000 0
  0.875000   0.500000 0
  0.625000   0.625000 0
  1.000000   0.500000 0
  0.750000   0.500000 0
  0.750000   1.000000 0
  1.000000   0.125000 0
  0.625000   0.250000 0
  0.750000   0.750000 0
  0.625000   0.000000 0
  0.125000   0.375000 0
  0.000000   0.500000 0
  0.125000   0.625000 0
  0.625000   1.000000 0
  1.000000   0.875000 0
  0.875000   0.125000 0
  0.500000   0.250000 0
  0.625000   0.500000 0
  0.250000   0.625000 0
  0.000000   0.625000 0
  0.375000   0.500000 0
  0.375000   0.000000 0
  0.000000   0.125000 0
  0.125000   0.875000 0
  0.875000   1.000000 0
  0.750000   0.250000 0
  0.375000   0.375000 0
  0.250000   0.375000 0
  0.625000   0.750000 0
  0.125000   0.125000 0
  0.500000   0.000000 0
  0.250000   0.875000 0
  0.125000   0.500000 0
  0.500000   0.375000 0
  0.125000   0.000000 0
  0.250000   0.750000 0
  0.250000   0.500000 0
  0.000000   0.875000 0
  0.875000   0.625000 0
  0.500000   0.750000 0
  0.750000   0.625000 0
  0.250000   0.000000 0
  0.375000   0.750000 0
  0.750000   0.875000 0
  0.625000   0.125000 0
  0.250000   0.250000 0
  0.375000   1.000000 0
  0.375000   0.250000 0
  0.000000   0.375000 0
  0.500000   1.000000 0
  0.875000   0.750000 0
  0.750000   0.000000 0
  0.375000   0.125000 0
  0.500000   0.875000 0
  0.000000   0.000000 0
  0.125000   0.750000 0
  0.500000   0.625000 0
  0.125000   0.250000 0
  0.500000   0.125000 0
  0.250000   1.000000 0
  0.250000   0.125000 0
  0.000000   1.000000 0
  0.375000   0.875000 0
  0.000000   0.750000 0
  0.375000   0.625000 0
  0.000000   0.250000 0
  0.125000   1.000000 0
  1.000000   0.375000 0
  0.500000   0.500000 0
  0.875000   0.375000 0
CELLS 64 320
4 56 71 58 63
4 27 58 69 63
4 41 69 32 63
4 76 33 68 40
4 27 44 58 37
4 79 31 44 37
4 56 38 68 21
4 56 58 38 37
4 52 32 71 63
4 47 38 31 37
4 76 68 59 21
4 22 59 43 21
4 65 45 33 40
4 47 43 38 21
4 52 71 45 40
4 56 68 71 40
4 74 30 66 23
4 46 66 29 23
4 22 43 30 23
4 72 48 77 34
4 46 53 42 73
4 50 64 53 73
4 70 42 57 73
4 74 66 48 34
4 46 42 66 34
4 47 29 43 23
4 70 77 42 34
4 60 57 64 73
4 79 67 31 75
4 47 31 29 75
4 50 53 67 75
4 46 29 53 75
4 10 78 6 80
4 36 6 1 80
4 15 1 12 80
4 36 4 6 26
4 14 12 78 80
4 2 17 9 26
4 36 18 4 55
4 15 28 1 11
4 62 4 20 55
4 10 6 17 26
4 27 18 44 11
4 62 9 4 26
4 27 69 18 55
4 36 1 18 11
4 41 20 69 55
4 79 44 28 11
4 16 24 54 7
4 19 54 39 7
4 50 39 64 7
4 8 25 61 3
4 60 64 24 7
4 79 28 67 13
4 19 51 61 49
4 8 61 0 49
4 15 51 28 13
4 19 39 51 13
4 50 67 39 13
4 19 61 54 3
4 14 0 12 49
4 5 35 25 3
4 15 12 51 49
4 16 54 35 3
CELL_TYPES 64
8
8
8
8
8
8
8
8
8
8
8
8
8
8
8
8
8
8
8
8
8
8
8
8
8
8
8
8
8
8
8
8
8
8
8
8
8
8
8
8
8
8
8
8
8
8
8
8
8
8
8
8
8
8
8
8
8
8
8
8
8
8
8
8
CELL_DATA 64
VECTORS vector_value float
0.922315 -1.18467 0
0.99778 -3.68539 0
0.606685 -3.92943 0
0.0452541 -0.0980626 0
0.100605 -2.99559 0
0.0273797 -0.741692 0
0.114983 -0.172165 0
0.649258 -1.99831 0
0.0407897 -0.139827 0
0.365442 -2.81095 0
0.00643079 -0.148447 0
0.00638527 -0.154771 0
0.0013837 -0.0461876 0
0.131438 -0.425892 0
0.00335626 -0.0105137 0
0.122047 -0.037704 0
0.142618 -0.31583 0
0.863725 -2.86911 0
0.0615244 -0.277654 0
0.131747 -0.781398 0
-0.505294 -0.584916 0
-0.014162 -0.053693 0
-0.168747 -1.42123 0
0.0817937 -0.612329 0
-0.68044 -2.17912 0
0.529867 -1.05981 0
0.364139 -0.824178 0
0.102714 -0.566457 0
-0.278859 -0.309802 0
1.20978 -2.25771 0
-0.102275 -0.0615116 0
-0.133366 -0.263681 0
-0.04123 -0.147548 0
-0.0588752 -0.161518 0
-0.0610207 -0.161591 0
-0.0809206 -0.244407 0
-0.0482903 -0.21182 0
-0.00437868 -0.0191546 0
-0.281186 -0.651576 0
-0.555337 -1.75147 0
-0.121524 -0.574653 0
-0.0384654 -0.0605667 0
-0.36165 -0.857521 0
-0.0506104 -0.141101 0
-0.140067 -2.03763 0
-0.31443 -1.51891 0
0.329659 -3.13913 0
-1.11045 -1.74181 0
0.366958 -2.22589 0
-0.393637 -3.17132 0
-0.0252346 -0.0834253 0
-0.0213029 -0.0547152 0
1.02771 -0.717184 0
-0.329873 -0.740735 0
-0.13231 -0.563052 0
0.0848344 -0.175098 0
-0.429051 -2.96339 0
-0.344465 -3.04687 0
-0.530675 -0.704849 0
-0.264358 -1.26048 0
0.025461 -0.292942 0
-0.447781 -0.35868 0
-0.0346727 -0.097959 0
-0.735962 -1.10498 0
