# vtk DataFile Version 2.0
Unstructured Grid by M++
ASCII
DATASET UNSTRUCTURED_GRID
POINTS 81 float
  1.000000   0.625000 0
  0.750000   0.375000 0
  1.000000   0.000000 0
  0.875000   0.875000 0
  0.750000   0.125000 0
  1.000000   1.000000 0
  0.875000   0.250000 0
  0.625000   0.875000 0
  1.000000   0.750000 0
  0.875000   0.000000 0
  1.000000   0.250000 0
  0.625000   0.375000 0
  0.875000   0.500000 0
  0.625000   0.625000 0
  1.000000   0.500000 0
  0.750000   0.500000 0
  0.750000   1.000000 0
  1.000000   0.125000 0
  0.625000   0.250000 0
  0.750000   0.750000 0
  0.625000   0.000000 0
  0.125000   0.375000 0
  0.000000   0.500000 0
  0.125000   0.625000 0
  0.625000   1.000000 0
  1.000000   0.875000 0
  0.875000   0.125000 0
  0.500000   0.250000 0
  0.625000   0.500000 0
  0.250000   0.625000 0
  0.000000   0.625000 0
  0.375000   0.500000 0
  0.375000   0.000000 0
  0.000000   0.125000 0
  0.125000   0.875000 0
  0.875000   1.000000 0
  0.750000   0.250000 0
  0.375000   0.375000 0
  0.250000   0.375000 0
  0.625000   0.750000 0
  0.125000   0.125000 0
  0.500000   0.000000 0
  0.250000   0.875000 0
  0.125000   0.500000 0
  0.500000   0.375000 0
  0.125000   0.000000 0
  0.250000   0.750000 0
  0.250000   0.500000 0
  0.000000   0.875000 0
  0.875000   0.625000 0
  0.500000   0.750000 0
  0.750000   0.625000 0
  0.250000   0.000000 0
  0.375000   0.750000 0
  0.750000   0.875000 0
  0.625000   0.125000 0
  0.250000   0.250000 0
  0.375000   1.000000 0
  0.375000   0.250000 0
  0.000000   0.375000 0
  0.500000   1.000000 0
  0.875000   0.750000 0
  0.750000   0.000000 0
  0.375000   0.125000 0
  0.500000   0.875000 0
  0.000000   0.000000 0
  0.125000   0.750000 0
  0.500000   0.625000 0
  0.125000   0.250000 0
  0.500000   0.125000 0
  0.250000   1.000000 0
  0.250000   0.125000 0
  0.000000   1.000000 0
  0.375000   0.875000 0
  0.000000   0.750000 0
  0.375000   0.625000 0
  0.000000   0.250000 0
  0.125000   1.000000 0
  1.000000   0.375000 0
  0.500000   0.500000 0
  0.875000   0.375000 0
CELLS 64 320
4 56 71 58 63
4 27 58 69 63
4 41 69 32 63
4 76 33 68 40
4 27 44 58 37
4 79 31 44 37
4 56 38 68 21
4 56 58 38 37
4 52 32 71 63
4 47 38 31 37
4 76 68 59 21
4 22 59 43 21
4 65 45 33 40
4 47 43 38 21
4 52 71 45 40
4 56 68 71 40
4 74 30 66 23
4 46 66 29 23
4 22 43 30 23
4 72 48 77 34
4 46 53 42 73
4 50 64 53 73
4 70 42 57 73
4 74 66 48 34
4 46 42 66 34
4 47 29 43 23
4 70 77 42 34
4 60 57 64 73
4 79 67 31 75
4 47 31 29 75
4 50 53 67 75
4 46 29 53 75
4 10 78 6 80
4 36 6 1 80
4 15 1 12 80
4 36 4 6 26
4 14 12 78 80
4 2 17 9 26
4 36 18 4 55
4 15 28 1 11
4 62 4 20 55
4 10 6 17 26
4 27 18 44 11
4 62 9 4 26
4 27 69 18 55
4 36 1 18 11
4 41 20 69 55
4 79 44 28 11
4 16 24 54 7
4 19 54 39 7
4 50 39 64 7
4 8 25 61 3
4 60 64 24 7
4 79 28 67 13
4 19 51 61 49
4 8 61 0 49
4 15 51 28 13
4 19 39 51 13
4 50 67 39 13
4 19 61 54 3
4 14 0 12 49
4 5 35 25 3
4 15 12 51 49
4 16 54 35 3
CELL_TYPES 64
8
8
8
8
8
8
8
8
8
8
8
8
8
8
8
8
8
8
8
8
8
8
8
8
8
8
8
8
8
8
8
8
8
8
8
8
8
8
8
8
8
8
8
8
8
8
8
8
8
8
8
8
8
8
8
8
8
8
8
8
8
8
8
8
CELL_DATA 64
VECTORS vector_value float
-0.110231 -1.89119 0
0.0918735 -0.389835 0
0.0218287 -0.583524 0
-0.0261456 -0.86575 0
0.0235072 -0.158032 0
0.00526043 -1.27022 0
-0.073411 -0.455835 0
-0.223431 -2.81547 0
0.191695 -1.93968 0
-0.167065 -2.18654 0
-0.0188638 -0.840047 0
-0.0711327 -0.70425 0
-0.325896 -1.44431 0
-0.0149938 -0.670481 0
-0.119211 -0.384993 0
-0.410189 -1.1435 0
-0.0879291 -0.542013 0
-0.429831 -0.607468 0
-0.0440072 -0.601964 0
0.314678 -0.463675 0
0.30984 -3.1254 0
-0.334699 -0.533138 0
0.00996162 -1.81634 0
-0.0171755 -0.390371 0
0.00924012 -0.195925 0
-0.0863834 -0.865928 0
0.968101 -1.18661 0
-0.267504 -0.449806 0
0.0509124 -1.40718 0
-0.107855 -2.04271 0
-0.14829 -1.84272 0
-0.170112 -2.17856 0
-0.240922 -0.698611 0
0.0687902 -0.318832 0
0.0323808 -0.0408537 0
0.4218 -1.59544 0
0.189416 -0.774204 0
0.338994 -0.77793 0
0.701359 -1.38385 0
0.145884 -0.353231 0
0.00829902 -0.897323 0
-0.056477 -0.196411 0
0.356048 -1.32178 0
0.215416 -1.38945 0
0.213427 -0.534034 0
0.791846 -1.39139 0
-0.122368 -0.582789 0
0.829192 -2.00022 0
0.30913 -0.986825 0
-0.954423 -0.880168 0
-1.06625 -0.918169 0
-0.36419 -0.855496 0
0.223301 -0.702286 0
-0.39201 -1.70112 0
-0.306589 -0.83785 0
0.0331634 -0.317345 0
-0.343946 -0.643521 0
-0.540728 -1.04149 0
-0.205638 -0.632552 0
-0.820991 -1.10133 0
0.0222099 -0.396852 0
0.0232697 -1.23119 0
0.234067 -0.340737 0
0.163681 -1.16326 0
