# vtk DataFile Version 2.0
Unstructured Grid by M++
ASCII
DATASET UNSTRUCTURED_GRID
POINTS 81 float
  1.000000   0.625000 0
  0.750000   0.375000 0
  1.000000   0.000000 0
  0.875000   0.875000 0
  0.750000   0.125000 0
  1.000000   1.000000 0
  0.875000   0.250000 0
  0.625000   0.875000 0
  1.000000   0.750000 0
  0.875000   0.000000 0
  1.000000   0.250000 0
  0.625000   0.375000 0
  0.875000   0.500000 0
  0.625000   0.625000 0
  1.000000   0.500000 0
  0.750000   0.500000 0
  0.750000   1.000000 0
  1.000000   0.125000 0
  0.625000   0.250000 0
  0.750000   0.750000 0
  0.625000   0.000000 0
  0.125000   0.375000 0
  0.000000   0.500000 0
  0.125000   0.625000 0
  0.625000   1.000000 0
  1.000000   0.875000 0
  0.875000   0.125000 0
  0.500000   0.250000 0
  0.625000   0.500000 0
  0.250000   0.625000 0
  0.000000   0.625000 0
  0.375000   0.500000 0
  0.375000   0.000000 0
  0.000000   0.125000 0
  0.125000   0.875000 0
  0.875000   1.000000 0
  0.750000   0.250000 0
  0.375000   0.375000 0
  0.250000   0.375000 0
  0.625000   0.750000 0
  0.125000   0.125000 0
  0.500000   0.000000 0
  0.250000   0.875000 0
  0.125000   0.500000 0
  0.500000   0.375000 0
  0.125000   0.000000 0
  0.250000   0.750000 0
  0.250000   0.500000 0
  0.000000   0.875000 0
  0.875000   0.625000 0
  0.500000   0.750000 0
  0.750000   0.625000 0
  0.250000   0.000000 0
  0.375000   0.750000 0
  0.750000   0.875000 0
  0.625000   0.125000 0
  0.250000   0.250000 0
  0.375000   1.000000 0
  0.375000   0.250000 0
  0.000000   0.375000 0
  0.500000   1.000000 0
  0.875000   0.750000 0
  0.750000   0.000000 0
  0.375000   0.125000 0
  0.500000   0.875000 0
  0.000000   0.000000 0
  0.125000   0.750000 0
  0.500000   0.625000 0
  0.125000   0.250000 0
  0.500000   0.125000 0
  0.250000   1.000000 0
  0.250000   0.125000 0
  0.000000   1.000000 0
  0.375000   0.875000 0
  0.000000   0.750000 0
  0.375000   0.625000 0
  0.000000   0.250000 0
  0.125000   1.000000 0
  1.000000   0.375000 0
  0.500000   0.500000 0
  0.875000   0.375000 0
CELLS 64 320
4 56 71 58 63
4 27 58 69 63
4 41 69 32 63
4 76 33 68 40
4 27 44 58 37
4 79 31 44 37
4 56 38 68 21
4 56 58 38 37
4 52 32 71 63
4 47 38 31 37
4 76 68 59 21
4 22 59 43 21
4 65 45 33 40
4 47 43 38 21
4 52 71 45 40
4 56 68 71 40
4 74 30 66 23
4 46 66 29 23
4 22 43 30 23
4 72 48 77 34
4 46 53 42 73
4 50 64 53 73
4 70 42 57 73
4 74 66 48 34
4 46 42 66 34
4 47 29 43 23
4 70 77 42 34
4 60 57 64 73
4 79 67 31 75
4 47 31 29 75
4 50 53 67 75
4 46 29 53 75
4 10 78 6 80
4 36 6 1 80
4 15 1 12 80
4 36 4 6 26
4 14 12 78 80
4 2 17 9 26
4 36 18 4 55
4 15 28 1 11
4 62 4 20 55
4 10 6 17 26
4 27 18 44 11
4 62 9 4 26
4 27 69 18 55
4 36 1 18 11
4 41 20 69 55
4 79 44 28 11
4 16 24 54 7
4 19 54 39 7
4 50 39 64 7
4 8 25 61 3
4 60 64 24 7
4 79 28 67 13
4 19 51 61 49
4 8 61 0 49
4 15 51 28 13
4 19 39 51 13
4 50 67 39 13
4 19 61 54 3
4 14 0 12 49
4 5 35 25 3
4 15 12 51 49
4 16 54 35 3
CELL_TYPES 64
8
8
8
8
8
8
8
8
8
8
8
8
8
8
8
8
8
8
8
8
8
8
8
8
8
8
8
8
8
8
8
8
8
8
8
8
8
8
8
8
8
8
8
8
8
8
8
8
8
8
8
8
8
8
8
8
8
8
8
8
8
8
8
8
CELL_DATA 64
VECTORS vector_value float
0.0160139 -0.034285 0
-0.013507 -0.313136 0
-0.141769 -0.608742 0
-0.0334285 -0.210512 0
0.0202996 -0.297665 0
0.126902 -0.398277 0
-0.0254647 -0.210483 0
0.0247241 -0.0681575 0
0.00767632 -0.0803335 0
0.0359215 -0.0775006 0
-0.0191013 -0.134233 0
-0.00987194 -0.0988491 0
-0.0136004 -0.249075 0
0.00879277 -0.267012 0
-0.000587917 -0.0487125 0
-0.012899 -0.120048 0
0.0541012 -0.293003 0
0.158841 -0.2962 0
0.0667269 -0.148949 0
0.215468 -1.11922 0
0.982905 -1.61161 0
0.201956 -0.264519 0
-0.195942 -0.701976 0
0.112902 -0.403802 0
1.01994 -1.05573 0
0.152227 -0.305695 0
-0.0743778 -1.20421 0
0.156975 -0.724555 0
0.961788 -1.40711 0
0.19583 -0.124489 0
1.48124 -1.48458 0
1.0962 -0.896988 0
0.0527971 -0.465229 0
0.0910685 -2.11931 0
0.109047 -2.70135 0
1.312 -2.6295 0
-0.034501 -0.377975 0
-0.0222278 -1.25616 0
0.250807 -2.188 0
0.416444 -0.982628 0
0.0137182 -0.420962 0
0.391724 -1.33243 0
0.0746797 -0.462893 0
0.129962 -3.74013 0
-0.641026 -1.17209 0
1.15118 -4.24203 0
-0.236792 -1.59588 0
1.74833 -3.09641 0
-0.0464681 -1.33883 0
-0.273395 -1.00124 0
-0.0514542 -1.94332 0
-0.35568 -1.56721 0
0.242294 -1.09381 0
0.888259 -2.64475 0
-0.217614 -1.03039 0
0.0726116 -0.781511 0
1.06689 -1.68594 0
0.129883 -0.804644 0
0.651443 -2.41269 0
-0.0548633 -0.152574 0
-0.253965 -1.16349 0
0.273616 -1.43893 0
0.124834 -0.519576 0
0.153454 -0.378474 0
