# vtk DataFile Version 2.0
Unstructured Grid by M++
ASCII
DATASET UNSTRUCTURED_GRID
POINTS 81 float
  1.000000   0.625000 0
  0.750000   0.375000 0
  1.000000   0.000000 0
  0.875000   0.875000 0
  0.750000   0.125000 0
  1.000000   1.000000 0
  0.875000   0.250000 0
  0.625000   0.875000 0
  1.000000   0.750000 0
  0.875000   0.000000 0
  1.000000   0.250000 0
  0.625000   0.375000 0
  0.875000   0.500000 0
  0.625000   0.625000 0
  1.000000   0.500000 0
  0.750000   0.500000 0
  0.750000   1.000000 0
  1.000000   0.125000 0
  0.625000   0.250000 0
  0.750000   0.750000 0
  0.625000   0.000000 0
  0.125000   0.375000 0
  0.000000   0.500000 0
  0.125000   0.625000 0
  0.625000   1.000000 0
  1.000000   0.875000 0
  0.875000   0.125000 0
  0.500000   0.250000 0
  0.625000   0.500000 0
  0.250000   0.625000 0
  0.000000   0.625000 0
  0.375000   0.500000 0
  0.375000   0.000000 0
  0.000000   0.125000 0
  0.125000   0.875000 0
  0.875000   1.000000 0
  0.750000   0.250000 0
  0.375000   0.375000 0
  0.250000   0.375000 0
  0.625000   0.750000 0
  0.125000   0.125000 0
  0.500000   0.000000 0
  0.250000   0.875000 0
  0.125000   0.500000 0
  0.500000   0.375000 0
  0.125000   0.000000 0
  0.250000   0.750000 0
  0.250000   0.500000 0
  0.000000   0.875000 0
  0.875000   0.625000 0
  0.500000   0.750000 0
  0.750000   0.625000 0
  0.250000   0.000000 0
  0.375000   0.750000 0
  0.750000   0.875000 0
  0.625000   0.125000 0
  0.250000   0.250000 0
  0.375000   1.000000 0
  0.375000   0.250000 0
  0.000000   0.375000 0
  0.500000   1.000000 0
  0.875000   0.750000 0
  0.750000   0.000000 0
  0.375000   0.125000 0
  0.500000   0.875000 0
  0.000000   0.000000 0
  0.125000   0.750000 0
  0.500000   0.625000 0
  0.125000   0.250000 0
  0.500000   0.125000 0
  0.250000   1.000000 0
  0.250000   0.125000 0
  0.000000   1.000000 0
  0.375000   0.875000 0
  0.000000   0.750000 0
  0.375000   0.625000 0
  0.000000   0.250000 0
  0.125000   1.000000 0
  1.000000   0.375000 0
  0.500000   0.500000 0
  0.875000   0.375000 0
CELLS 64 320
4 56 71 58 63
4 27 58 69 63
4 41 69 32 63
4 76 33 68 40
4 27 44 58 37
4 79 31 44 37
4 56 38 68 21
4 56 58 38 37
4 52 32 71 63
4 47 38 31 37
4 76 68 59 21
4 22 59 43 21
4 65 45 33 40
4 47 43 38 21
4 52 71 45 40
4 56 68 71 40
4 74 30 66 23
4 46 66 29 23
4 22 43 30 23
4 72 48 77 34
4 46 53 42 73
4 50 64 53 73
4 70 42 57 73
4 74 66 48 34
4 46 42 66 34
4 47 29 43 23
4 70 77 42 34
4 60 57 64 73
4 79 67 31 75
4 47 31 29 75
4 50 53 67 75
4 46 29 53 75
4 10 78 6 80
4 36 6 1 80
4 15 1 12 80
4 36 4 6 26
4 14 12 78 80
4 2 17 9 26
4 36 18 4 55
4 15 28 1 11
4 62 4 20 55
4 10 6 17 26
4 27 18 44 11
4 62 9 4 26
4 27 69 18 55
4 36 1 18 11
4 41 20 69 55
4 79 44 28 11
4 16 24 54 7
4 19 54 39 7
4 50 39 64 7
4 8 25 61 3
4 60 64 24 7
4 79 28 67 13
4 19 51 61 49
4 8 61 0 49
4 15 51 28 13
4 19 39 51 13
4 50 67 39 13
4 19 61 54 3
4 14 0 12 49
4 5 35 25 3
4 15 12 51 49
4 16 54 35 3
CELL_TYPES 64
8
8
8
8
8
8
8
8
8
8
8
8
8
8
8
8
8
8
8
8
8
8
8
8
8
8
8
8
8
8
8
8
8
8
8
8
8
8
8
8
8
8
8
8
8
8
8
8
8
8
8
8
8
8
8
8
8
8
8
8
8
8
8
8
CELL_DATA 64
VECTORS vector_value float
-0.573025 -1.56164 0
-1.67497 -4.58399 0
-0.372738 -1.85907 0
-0.0102367 -0.0922473 0
0.286032 -4.19718 0
0.877782 -2.90255 0
-0.0121306 -0.162384 0
0.0504953 -1.79943 0
-2.13259 -3.2933 0
1.04623 -3.16677 0
-0.0144914 -0.0717898 0
-0.0164487 -0.0227822 0
-0.0578218 -0.194787 0
0.0933582 -0.361976 0
-0.802616 -1.65352 0
-0.188058 -0.425092 0
0.15685 -0.210619 0
0.507216 -1.1915 0
0.0172087 -0.0210578 0
-0.146284 -1.33745 0
-0.31494 -2.85437 0
-0.493927 -1.2218 0
-0.167111 -1.20668 0
0.464193 -1.13097 0
0.22385 -0.361017 0
0.457861 -0.857553 0
0.065203 -0.635072 0
-1.08833 -1.38148 0
0.0666405 -1.91548 0
0.756177 -3.62293 0
-0.23375 -1.27741 0
-0.01563 -3.22216 0
0.127522 -0.494041 0
0.0322521 -0.278859 0
0.0238038 -0.523935 0
-0.0675904 -0.140146 0
-0.00142146 -0.258675 0
-0.0135207 -0.400636 0
-0.0981262 -0.149922 0
-0.0611774 -0.205458 0
-0.00755712 -0.129781 0
-0.0588952 -0.527203 0
-0.0210332 -0.871334 0
-0.0389291 -0.242532 0
-0.387168 -0.519754 0
-0.0376484 -0.124987 0
-0.0213902 -0.22638 0
0.0516884 -0.557859 0
-0.972879 -1.14258 0
-0.336565 -1.1692 0
-0.212988 -0.460669 0
-0.0271842 -0.19794 0
-1.20575 -0.997056 0
-0.328808 -0.53044 0
0.071384 -0.453686 0
0.0806656 -0.33045 0
-0.0942903 -0.230529 0
-0.184958 -0.595198 0
-0.491975 -0.718975 0
-0.14448 -0.604032 0
-0.0378601 -0.376032 0
-0.371241 -0.633888 0
-0.0119404 -0.445971 0
-0.849086 -0.66579 0
