# vtk DataFile Version 2.0
Unstructured Grid by M++
ASCII
DATASET UNSTRUCTURED_GRID
POINTS 81 float
  1.000000   0.625000 0
  0.750000   0.375000 0
  1.000000   0.000000 0
  0.875000   0.875000 0
  0.750000   0.125000 0
  1.000000   1.000000 0
  0.875000   0.250000 0
  0.625000   0.875000 0
  1.000000   0.750000 0
  0.875000   0.000000 0
  1.000000   0.250000 0
  0.625000   0.375000 0
  0.875000   0.500000 0
  0.625000   0.625000 0
  1.000000   0.500000 0
  0.750000   0.500000 0
  0.750000   1.000000 0
  1.000000   0.125000 0
  0.625000   0.250000 0
  0.750000   0.750000 0
  0.625000   0.000000 0
  0.125000   0.375000 0
  0.000000   0.500000 0
  0.125000   0.625000 0
  0.625000   1.000000 0
  1.000000   0.875000 0
  0.875000   0.125000 0
  0.500000   0.250000 0
  0.625000   0.500000 0
  0.250000   0.625000 0
  0.000000   0.625000 0
  0.375000   0.500000 0
  0.375000   0.000000 0
  0.000000   0.125000 0
  0.125000   0.875000 0
  0.875000   1.000000 0
  0.750000   0.250000 0
  0.375000   0.375000 0
  0.250000   0.375000 0
  0.625000   0.750000 0
  0.125000   0.125000 0
  0.500000   0.000000 0
  0.250000   0.875000 0
  0.125000   0.500000 0
  0.500000   0.375000 0
  0.125000   0.000000 0
  0.250000   0.750000 0
  0.250000   0.500000 0
  0.000000   0.875000 0
  0.875000   0.625000 0
  0.500000   0.750000 0
  0.750000   0.625000 0
  0.250000   0.000000 0
  0.375000   0.750000 0
  0.750000   0.875000 0
  0.625000   0.125000 0
  0.250000   0.250000 0
  0.375000   1.000000 0
  0.375000   0.250000 0
  0.000000   0.375000 0
  0.500000   1.000000 0
  0.875000   0.750000 0
  0.750000   0.000000 0
  0.375000   0.125000 0
  0.500000   0.875000 0
  0.000000   0.000000 0
  0.125000   0.750000 0
  0.500000   0.625000 0
  0.125000   0.250000 0
  0.500000   0.125000 0
  0.250000   1.000000 0
  0.250000   0.125000 0
  0.000000   1.000000 0
  0.375000   0.875000 0
  0.000000   0.750000 0
  0.375000   0.625000 0
  0.000000   0.250000 0
  0.125000   1.000000 0
  1.000000   0.375000 0
  0.500000   0.500000 0
  0.875000   0.375000 0
CELLS 64 320
4 56 71 58 63
4 27 58 69 63
4 41 69 32 63
4 76 33 68 40
4 27 44 58 37
4 79 31 44 37
4 56 38 68 21
4 56 58 38 37
4 52 32 71 63
4 47 38 31 37
4 76 68 59 21
4 22 59 43 21
4 65 45 33 40
4 47 43 38 21
4 52 71 45 40
4 56 68 71 40
4 74 30 66 23
4 46 66 29 23
4 22 43 30 23
4 72 48 77 34
4 46 53 42 73
4 50 64 53 73
4 70 42 57 73
4 74 66 48 34
4 46 42 66 34
4 47 29 43 23
4 70 77 42 34
4 60 57 64 73
4 79 67 31 75
4 47 31 29 75
4 50 53 67 75
4 46 29 53 75
4 10 78 6 80
4 36 6 1 80
4 15 1 12 80
4 36 4 6 26
4 14 12 78 80
4 2 17 9 26
4 36 18 4 55
4 15 28 1 11
4 62 4 20 55
4 10 6 17 26
4 27 18 44 11
4 62 9 4 26
4 27 69 18 55
4 36 1 18 11
4 41 20 69 55
4 79 44 28 11
4 16 24 54 7
4 19 54 39 7
4 50 39 64 7
4 8 25 61 3
4 60 64 24 7
4 79 28 67 13
4 19 51 61 49
4 8 61 0 49
4 15 51 28 13
4 19 39 51 13
4 50 67 39 13
4 19 61 54 3
4 14 0 12 49
4 5 35 25 3
4 15 12 51 49
4 16 54 35 3
CELL_TYPES 64
8
8
8
8
8
8
8
8
8
8
8
8
8
8
8
8
8
8
8
8
8
8
8
8
8
8
8
8
8
8
8
8
8
8
8
8
8
8
8
8
8
8
8
8
8
8
8
8
8
8
8
8
8
8
8
8
8
8
8
8
8
8
8
8
CELL_DATA 64
VECTORS vector_value float
0.0694216 -0.386901 0
-0.0744641 -0.155695 0
-0.0452428 -0.405211 0
0.781516 -1.96667 0
0.157629 -0.644418 0
-0.208096 -1.50626 0
-0.801035 -2.09297 0
-0.657379 -0.939734 0
0.0303411 -0.514926 0
-1.1387 -1.58681 0
-0.388121 -1.94213 0
-0.378487 -0.978072 0
0.0190207 -0.611214 0
-1.31264 -1.96936 0
0.17449 -3.94875 0
0.691026 -2.74512 0
0.0392436 -0.89377 0
-0.16571 -0.779043 0
0.0794654 -0.687029 0
0.101537 -0.804534 0
0.0366367 -0.516729 0
-0.960191 -2.18249 0
0.739016 -0.846871 0
-0.0566121 -0.891582 0
0.00155038 -0.483515 0
-0.000876815 -1.18619 0
0.35669 -0.817933 0
0.676491 -0.934041 0
-0.825303 -1.9457 0
-0.774149 -2.12175 0
-0.505858 -2.69242 0
-0.617558 -1.08446 0
0.00192846 -0.0261218 0
-0.0801665 -0.270704 0
-0.455399 -0.48197 0
0.246166 -0.32717 0
-0.154636 -0.196124 0
0.16911 -0.370437 0
0.353737 -1.22222 0
-0.449622 -0.476998 0
0.0273946 -1.31787 0
0.0260081 -0.0596473 0
0.532403 -1.26739 0
0.0675974 -0.207175 0
0.08535 -1.13657 0
0.0544035 -0.816529 0
0.00123308 -0.624414 0
-0.0987124 -0.804409 0
-0.985534 -1.28031 0
-0.200962 -0.818636 0
-1.2582 -2.16638 0
0.0700888 -0.736671 0
-0.191524 -2.00012 0
-0.211717 -0.664724 0
0.0697581 -0.429853 0
-0.0462505 -0.773531 0
-0.0507046 -0.223238 0
-0.00759668 -0.217484 0
-0.150933 -1.12944 0
0.0579283 -0.203999 0
-0.168765 -0.536443 0
-0.184081 -0.670639 0
-0.269723 -0.634921 0
-0.65087 -0.645546 0
