# vtk DataFile Version 2.0
Unstructured Grid by M++
ASCII
DATASET UNSTRUCTURED_GRID
POINTS 81 float
  1.000000   0.625000 0
  0.750000   0.375000 0
  1.000000   0.000000 0
  0.875000   0.875000 0
  0.750000   0.125000 0
  1.000000   1.000000 0
  0.875000   0.250000 0
  0.625000   0.875000 0
  1.000000   0.750000 0
  0.875000   0.000000 0
  1.000000   0.250000 0
  0.625000   0.375000 0
  0.875000   0.500000 0
  0.625000   0.625000 0
  1.000000   0.500000 0
  0.750000   0.500000 0
  0.750000   1.000000 0
  1.000000   0.125000 0
  0.625000   0.250000 0
  0.750000   0.750000 0
  0.625000   0.000000 0
  0.125000   0.375000 0
  0.000000   0.500000 0
  0.125000   0.625000 0
  0.625000   1.000000 0
  1.000000   0.875000 0
  0.875000   0.125000 0
  0.500000   0.250000 0
  0.625000   0.500000 0
  0.250000   0.625000 0
  0.000000   0.625000 0
  0.375000   0.500000 0
  0.375000   0.000000 0
  0.000000   0.125000 0
  0.125000   0.875000 0
  0.875000   1.000000 0
  0.750000   0.250000 0
  0.375000   0.375000 0
  0.250000   0.375000 0
  0.625000   0.750000 0
  0.125000   0.125000 0
  0.500000   0.000000 0
  0.250000   0.875000 0
  0.125000   0.500000 0
  0.500000   0.375000 0
  0.125000   0.000000 0
  0.250000   0.750000 0
  0.250000   0.500000 0
  0.000000   0.875000 0
  0.875000   0.625000 0
  0.500000   0.750000 0
  0.750000   0.625000 0
  0.250000   0.000000 0
  0.375000   0.750000 0
  0.750000   0.875000 0
  0.625000   0.125000 0
  0.250000   0.250000 0
  0.375000   1.000000 0
  0.375000   0.250000 0
  0.000000   0.375000 0
  0.500000   1.000000 0
  0.875000   0.750000 0
  0.750000   0.000000 0
  0.375000   0.125000 0
  0.500000   0.875000 0
  0.000000   0.000000 0
  0.125000   0.750000 0
  0.500000   0.625000 0
  0.125000   0.250000 0
  0.500000   0.125000 0
  0.250000   1.000000 0
  0.250000   0.125000 0
  0.000000   1.000000 0
  0.375000   0.875000 0
  0.000000   0.750000 0
  0.375000   0.625000 0
  0.000000   0.250000 0
  0.125000   1.000000 0
  1.000000   0.375000 0
  0.500000   0.500000 0
  0.875000   0.375000 0
CELLS 64 320
4 56 71 58 63
4 27 58 69 63
4 41 69 32 63
4 76 33 68 40
4 27 44 58 37
4 79 31 44 37
4 56 38 68 21
4 56 58 38 37
4 52 32 71 63
4 47 38 31 37
4 76 68 59 21
4 22 59 43 21
4 65 45 33 40
4 47 43 38 21
4 52 71 45 40
4 56 68 71 40
4 74 30 66 23
4 46 66 29 23
4 22 43 30 23
4 72 48 77 34
4 46 53 42 73
4 50 64 53 73
4 70 42 57 73
4 74 66 48 34
4 46 42 66 34
4 47 29 43 23
4 70 77 42 34
4 60 57 64 73
4 79 67 31 75
4 47 31 29 75
4 50 53 67 75
4 46 29 53 75
4 10 78 6 80
4 36 6 1 80
4 15 1 12 80
4 36 4 6 26
4 14 12 78 80
4 2 17 9 26
4 36 18 4 55
4 15 28 1 11
4 62 4 20 55
4 10 6 17 26
4 27 18 44 11
4 62 9 4 26
4 27 69 18 55
4 36 1 18 11
4 41 20 69 55
4 79 44 28 11
4 16 24 54 7
4 19 54 39 7
4 50 39 64 7
4 8 25 61 3
4 60 64 24 7
4 79 28 67 13
4 19 51 61 49
4 8 61 0 49
4 15 51 28 13
4 19 39 51 13
4 50 67 39 13
4 19 61 54 3
4 14 0 12 49
4 5 35 25 3
4 15 12 51 49
4 16 54 35 3
CELL_TYPES 64
8
8
8
8
8
8
8
8
8
8
8
8
8
8
8
8
8
8
8
8
8
8
8
8
8
8
8
8
8
8
8
8
8
8
8
8
8
8
8
8
8
8
8
8
8
8
8
8
8
8
8
8
8
8
8
8
8
8
8
8
8
8
8
8
CELL_DATA 64
VECTORS vector_value float
0.0248819 -0.425651 0
0.862146 -6.20156 0
0.115071 -3.58323 0
-0.056626 -0.180429 0
-0.981558 -4.77408 0
-0.0447567 -3.75398 0
0.0718834 -0.139042 0
0.349924 -1.43606 0
-0.367747 -1.17753 0
0.0428911 -0.688363 0
-0.011439 -0.0881316 0
0.00544845 -0.0676818 0
-0.0134671 -0.228679 0
0.11553 -0.48603 0
-0.00474698 -0.00739774 0
-0.0651121 -0.056501 0
0.00774585 -0.273358 0
0.11488 -0.579996 0
0.0896506 -0.229212 0
0.321291 -0.51248 0
0.620182 -1.938 0
0.634448 -1.9855 0
0.331604 -1.84594 0
0.0408122 -0.289368 0
0.13279 -0.454615 0
0.0594922 -0.314455 0
0.842114 -0.931489 0
-0.434841 -1.18193 0
0.0588269 -3.20324 0
0.237537 -1.03603 0
0.104624 -2.25166 0
0.374596 -1.24158 0
-0.0129009 -0.457591 0
-0.0373662 -0.259364 0
-0.0350513 -0.129576 0
0.0140393 -0.121887 0
-0.0600719 -0.605237 0
-0.0470522 -0.483814 0
-0.0380861 -0.108268 0
-0.0731439 -0.515511 0
-0.0171286 -0.098662 0
0.040495 -0.563283 0
-0.54332 -0.446615 0
-0.0574096 -0.184696 0
-0.177474 -0.342416 0
-0.19831 -0.399122 0
1.10044 -2.23599 0
-0.559714 -1.75362 0
0.571665 -0.739889 0
-0.190979 -0.290319 0
-0.106131 -0.127696 0
-0.0908013 -0.296255 0
-0.149977 -0.213009 0
-0.282349 -1.78123 0
-0.286366 -1.07155 0
0.120316 -0.371574 0
-0.13106 -0.673882 0
-1.70797 -1.02376 0
-0.712897 -1.18652 0
-0.710586 -2.61825 0
0.0337797 -0.617101 0
-0.249699 -0.735979 0
-0.012782 -0.144856 0
0.192116 -1.83929 0
