# vtk DataFile Version 2.0
Unstructured Grid by M++
ASCII
DATASET UNSTRUCTURED_GRID
POINTS 81 float
  1.000000   0.625000 0
  0.750000   0.375000 0
  1.000000   0.000000 0
  0.875000   0.875000 0
  0.750000   0.125000 0
  1.000000   1.000000 0
  0.875000   0.250000 0
  0.625000   0.875000 0
  1.000000   0.750000 0
  0.875000   0.000000 0
  1.000000   0.250000 0
  0.625000   0.375000 0
  0.875000   0.500000 0
  0.625000   0.625000 0
  1.000000   0.500000 0
  0.750000   0.500000 0
  0.750000   1.000000 0
  1.000000   0.125000 0
  0.625000   0.250000 0
  0.750000   0.750000 0
  0.625000   0.000000 0
  0.125000   0.375000 0
  0.000000   0.500000 0
  0.125000   0.625000 0
  0.625000   1.000000 0
  1.000000   0.875000 0
  0.875000   0.125000 0
  0.500000   0.250000 0
  0.625000   0.500000 0
  0.250000   0.625000 0
  0.000000   0.625000 0
  0.375000   0.500000 0
  0.375000   0.000000 0
  0.000000   0.125000 0
  0.125000   0.875000 0
  0.875000   1.000000 0
  0.750000   0.250000 0
  0.375000   0.375000 0
  0.250000   0.375000 0
  0.625000   0.750000 0
  0.125000   0.125000 0
  0.500000   0.000000 0
  0.250000   0.875000 0
  0.125000   0.500000 0
  0.500000   0.375000 0
  0.125000   0.000000 0
  0.250000   0.750000 0
  0.250000   0.500000 0
  0.000000   0.875000 0
  0.875000   0.625000 0
  0.500000   0.750000 0
  0.750000   0.625000 0
  0.250000   0.000000 0
  0.375000   0.750000 0
  0.750000   0.875000 0
  0.625000   0.125000 0
  0.250000   0.250000 0
  0.375000   1.000000 0
  0.375000   0.250000 0
  0.000000   0.375000 0
  0.500000   1.000000 0
  0.875000   0.750000 0
  0.750000   0.000000 0
  0.375000   0.125000 0
  0.500000   0.875000 0
  0.000000   0.000000 0
  0.125000   0.750000 0
  0.500000   0.625000 0
  0.125000   0.250000 0
  0.500000   0.125000 0
  0.250000   1.000000 0
  0.250000   0.125000 0
  0.000000   1.000000 0
  0.375000   0.875000 0
  0.000000   0.750000 0
  0.375000   0.625000 0
  0.000000   0.250000 0
  0.125000   1.000000 0
  1.000000   0.375000 0
  0.500000   0.500000 0
  0.875000   0.375000 0
CELLS 64 320
4 56 71 58 63
4 27 58 69 63
4 41 69 32 63
4 76 33 68 40
4 27 44 58 37
4 79 31 44 37
4 56 38 68 21
4 56 58 38 37
4 52 32 71 63
4 47 38 31 37
4 76 68 59 21
4 22 59 43 21
4 65 45 33 40
4 47 43 38 21
4 52 71 45 40
4 56 68 71 40
4 74 30 66 23
4 46 66 29 23
4 22 43 30 23
4 72 48 77 34
4 46 53 42 73
4 50 64 53 73
4 70 42 57 73
4 74 66 48 34
4 46 42 66 34
4 47 29 43 23
4 70 77 42 34
4 60 57 64 73
4 79 67 31 75
4 47 31 29 75
4 50 53 67 75
4 46 29 53 75
4 10 78 6 80
4 36 6 1 80
4 15 1 12 80
4 36 4 6 26
4 14 12 78 80
4 2 17 9 26
4 36 18 4 55
4 15 28 1 11
4 62 4 20 55
4 10 6 17 26
4 27 18 44 11
4 62 9 4 26
4 27 69 18 55
4 36 1 18 11
4 41 20 69 55
4 79 44 28 11
4 16 24 54 7
4 19 54 39 7
4 50 39 64 7
4 8 25 61 3
4 60 64 24 7
4 79 28 67 13
4 19 51 61 49
4 8 61 0 49
4 15 51 28 13
4 19 39 51 13
4 50 67 39 13
4 19 61 54 3
4 14 0 12 49
4 5 35 25 3
4 15 12 51 49
4 16 54 35 3
CELL_TYPES 64
8
8
8
8
8
8
8
8
8
8
8
8
8
8
8
8
8
8
8
8
8
8
8
8
8
8
8
8
8
8
8
8
8
8
8
8
8
8
8
8
8
8
8
8
8
8
8
8
8
8
8
8
8
8
8
8
8
8
8
8
8
8
8
8
CELL_DATA 64
VECTORS vector_value float
0.0565433 -0.0799556 0
0.315454 -0.213633 0
0.0229179 -0.0373087 0
0.0178557 -0.174989 0
0.540309 -0.610267 0
1.27653 -1.71858 0
0.0238466 -0.17616 0
0.137122 -0.211985 0
0.00729459 -0.0493316 0
0.203705 -0.381342 0
-0.000167967 -0.212483 0
-0.00413555 -0.191953 0
0.00144885 -0.166411 0
0.0549803 -0.331505 0
0.00105866 -0.200728 0
0.0254601 -0.193999 0
0.206396 -0.537492 0
0.585716 -0.436727 0
0.0470198 -0.222357 0
-0.164465 -1.27612 0
0.132148 -0.455177 0
-0.0570691 -2.70478 0
0.825324 -0.809576 0
0.313085 -1.15342 0
0.227094 -0.182069 0
0.158788 -0.38455 0
0.156457 -0.194987 0
0.361049 -1.84791 0
0.566008 -1.24169 0
0.841061 -1.82534 0
0.0434992 -2.1624 0
-0.0937864 -1.1855 0
0.0367338 -0.403304 0
-0.231071 -1.84507 0
-0.43327 -2.66115 0
0.687951 -2.51298 0
-0.211169 -0.386782 0
0.075081 -0.461724 0
1.58314 -3.57105 0
0.309584 -1.342 0
0.213622 -2.87437 0
-0.032833 -0.291864 0
1.10646 -1.63732 0
0.328496 -3.58543 0
0.944664 -0.961523 0
-0.0387262 -2.90341 0
0.0980338 -0.624695 0
0.930134 -0.986689 0
0.349646 -0.720938 0
0.0541317 -0.206819 0
0.0427906 -0.537706 0
0.156713 -2.40016 0
-0.23884 -0.831284 0
0.374423 -0.618903 0
-0.0452052 -0.457997 0
-0.345428 -2.28637 0
0.406605 -0.665941 0
0.141937 -0.397039 0
0.49255 -0.536475 0
0.000221654 -0.35987 0
-0.482395 -1.08194 0
0.546673 -1.58187 0
-0.531429 -1.95928 0
1.03349 -0.73731 0
