# vtk DataFile Version 2.0
Unstructured Grid by M++
ASCII
DATASET UNSTRUCTURED_GRID
POINTS 289 float
  0.562500   1.000000 0
  0.562500   0.625000 0
  0.625000   1.000000 0
  0.562500   0.937500 0
  0.562500   0.562500 0
  0.625000   0.937500 0
  0.562500   0.875000 0
  0.625000   0.750000 0
  0.625000   0.625000 0
  0.562500   0.812500 0
  0.562500   0.750000 0
  0.562500   0.687500 0
  0.625000   0.875000 0
  0.625000   0.812500 0
  0.625000   0.687500 0
  0.687500   0.125000 0
  0.875000   0.062500 0
  0.625000   0.125000 0
  0.625000   0.187500 0
  0.625000   0.250000 0
  0.812500   0.187500 0
  1.000000   0.125000 0
  0.687500   0.187500 0
  0.750000   0.125000 0
  0.937500   0.062500 0
  0.937500   0.125000 0
  0.750000   0.187500 0
  0.812500   0.062500 0
  0.812500   0.125000 0
  0.875000   0.687500 0
  0.187500   0.250000 0
  0.437500   0.250000 0
  0.375000   0.187500 0
  0.812500   0.625000 0
  0.125000   0.187500 0
  0.937500   0.750000 0
  0.250000   0.312500 0
  0.500000   0.312500 0
  0.625000   0.062500 0
  0.437500   0.500000 0
  0.375000   0.125000 0
  0.437500   0.187500 0
  0.437500   0.437500 0
  0.437500   0.375000 0
  0.875000   0.875000 0
  0.187500   0.375000 0
  0.687500   0.562500 0
  0.687500   0.625000 0
  0.000000   0.125000 0
  0.937500   0.625000 0
  0.250000   0.125000 0
  0.375000   0.062500 0
  0.375000   0.000000 0
  0.812500   0.500000 0
  0.125000   0.000000 0
  0.937500   0.937500 0
  0.250000   0.437500 0
  0.687500   0.875000 0
  0.687500   0.937500 0
  0.000000   0.437500 0
  0.500000   0.500000 0
  0.500000   0.437500 0
  0.750000   0.937500 0
  0.750000   1.000000 0
  0.062500   0.500000 0
  1.000000   1.000000 0
  0.312500   0.500000 0
  0.875000   0.562500 0
  0.187500   0.062500 0
  0.437500   0.125000 0
  0.437500   0.062500 0
  0.500000   0.375000 0
  0.937500   0.812500 0
  0.937500   0.875000 0
  0.250000   0.375000 0
  0.687500   0.812500 0
  0.000000   0.375000 0
  0.750000   0.562500 0
  0.062500   0.125000 0
  1.000000   0.562500 0
  1.000000   0.625000 0
  0.312500   0.125000 0
  0.562500   0.125000 0
  0.437500   0.000000 0
  0.875000   0.437500 0
  0.875000   0.500000 0
  0.187500   0.000000 0
  0.937500   0.562500 0
  0.937500   0.500000 0
  0.250000   0.062500 0
  0.687500   0.500000 0
  0.000000   0.062500 0
  0.500000   0.062500 0
  1.000000   0.875000 0
  1.000000   0.937500 0
  0.312500   0.437500 0
  0.750000   0.875000 0
  0.062500   0.437500 0
  0.812500   0.937500 0
  0.125000   0.500000 0
  0.375000   0.500000 0
  0.625000   0.562500 0
  0.625000   0.500000 0
  0.437500   0.312500 0
  0.875000   0.812500 0
  0.875000   0.750000 0
  0.187500   0.312500 0
  0.812500   0.687500 0
  0.812500   0.750000 0
  0.125000   0.250000 0
  0.375000   0.250000 0
  1.000000   0.687500 0
  0.312500   0.187500 0
  0.750000   0.687500 0
  0.750000   0.625000 0
  0.062500   0.187500 0
  0.562500   0.250000 0
  0.562500   0.187500 0
  0.375000   1.000000 0
  0.500000   0.562500 0
  0.500000   0.250000 0
  0.750000   0.250000 0
  0.500000   0.125000 0
  0.500000   0.187500 0
  1.000000   0.187500 0
  0.625000   0.375000 0
  0.875000   0.375000 0
  1.000000   0.437500 0
  0.312500   0.000000 0
  0.562500   0.000000 0
  0.812500   0.000000 0
  0.250000   0.687500 0
  0.000000   0.687500 0
  0.500000   1.000000 0
  0.250000   1.000000 0
  0.000000   1.000000 0
  0.437500   0.687500 0
  0.437500   0.625000 0
  0.187500   0.625000 0
  0.687500   0.750000 0
  0.000000   0.312500 0
  0.000000   0.250000 0
  0.375000   0.375000 0
  0.375000   0.312500 0
  0.812500   0.812500 0
  0.125000   0.312500 0
  0.875000   0.625000 0
  0.187500   0.187500 0
  0.187500   0.125000 0
  0.937500   1.000000 0
  0.250000   0.562500 0
  0.250000   0.500000 0
  0.687500   1.000000 0
  0.000000   0.500000 0
  0.687500   0.687500 0
  0.000000   0.187500 0
  0.937500   0.687500 0
  0.250000   0.250000 0
  0.250000   0.187500 0
  0.187500   0.687500 0
  0.000000   0.750000 0
  0.250000   0.750000 0
  0.125000   0.625000 0
  0.750000   0.750000 0
  0.062500   0.250000 0
  0.875000   0.937500 0
  0.187500   0.500000 0
  0.187500   0.437500 0
  0.812500   0.562500 0
  0.125000   0.125000 0
  0.125000   0.062500 0
  0.375000   0.625000 0
  0.375000   0.687500 0
  1.000000   0.750000 0
  0.312500   0.250000 0
  0.312500   0.312500 0
  0.812500   0.312500 0
  0.562500   0.312500 0
  0.375000   0.750000 0
  0.500000   0.625000 0
  0.250000   0.625000 0
  0.312500   0.687500 0
  0.750000   0.812500 0
  0.062500   0.312500 0
  0.062500   0.375000 0
  1.000000   0.812500 0
  0.312500   0.375000 0
  0.562500   0.375000 0
  0.687500   0.437500 0
  0.000000   0.000000 0
  0.500000   0.000000 0
  0.937500   0.437500 0
  0.250000   0.000000 0
  0.375000   0.437500 0
  0.812500   0.875000 0
  0.125000   0.375000 0
  0.125000   0.437500 0
  0.625000   0.437500 0
  1.000000   0.500000 0
  0.312500   0.062500 0
  0.750000   0.500000 0
  0.062500   0.000000 0
  0.062500   0.062500 0
  0.562500   0.062500 0
  0.062500   0.750000 0
  0.312500   0.750000 0
  0.312500   0.625000 0
  0.312500   0.562500 0
  0.062500   0.562500 0
  0.187500   1.000000 0
  0.437500   0.562500 0
  0.875000   1.000000 0
  0.187500   0.562500 0
  0.500000   0.937500 0
  0.250000   0.937500 0
  0.312500   1.000000 0
  0.125000   0.750000 0
  0.125000   0.687500 0
  1.000000   0.000000 0
  0.000000   0.937500 0
  0.000000   0.875000 0
  0.875000   0.125000 0
  0.875000   0.187500 0
  0.062500   0.812500 0
  0.312500   0.812500 0
  0.000000   0.812500 0
  0.000000   0.625000 0
  0.000000   0.562500 0
  0.062500   1.000000 0
  0.062500   0.937500 0
  0.937500   0.187500 0
  0.937500   0.250000 0
  0.062500   0.687500 0
  0.062500   0.625000 0
  0.125000   1.000000 0
  1.000000   0.250000 0
  1.000000   0.312500 0
  0.062500   0.875000 0
  0.125000   0.812500 0
  0.375000   0.812500 0
  0.125000   0.875000 0
  0.375000   0.937500 0
  0.375000   0.875000 0
  0.187500   0.750000 0
  0.187500   0.812500 0
  0.437500   0.812500 0
  0.187500   0.875000 0
  0.437500   0.875000 0
  0.375000   0.562500 0
  0.812500   1.000000 0
  0.125000   0.562500 0
  0.437500   1.000000 0
  0.437500   0.937500 0
  0.187500   0.937500 0
  0.125000   0.937500 0
  0.500000   0.687500 0
  0.500000   0.750000 0
  0.500000   0.812500 0
  0.250000   0.812500 0
  0.250000   0.875000 0
  0.500000   0.875000 0
  0.437500   0.750000 0
  0.312500   0.875000 0
  0.312500   0.937500 0
  0.687500   0.250000 0
  0.687500   0.312500 0
  0.937500   0.312500 0
  0.875000   0.250000 0
  0.625000   0.000000 0
  0.875000   0.000000 0
  0.687500   0.375000 0
  0.937500   0.375000 0
  0.875000   0.312500 0
  0.625000   0.312500 0
  0.687500   0.000000 0
  0.937500   0.000000 0
  0.750000   0.312500 0
  0.750000   0.375000 0
  1.000000   0.375000 0
  0.812500   0.250000 0
  0.562500   0.437500 0
  0.562500   0.500000 0
  0.687500   0.062500 0
  0.750000   0.437500 0
  0.750000   0.000000 0
  0.750000   0.062500 0
  1.000000   0.062500 0
  0.812500   0.375000 0
  0.812500   0.437500 0
CELLS 256 1280
4 169 170 148 68
4 151 166 56 167
4 195 45 196 167
4 54 170 201 202
4 109 34 30 147
4 40 32 81 112
4 192 89 86 68
4 48 91 78 202
4 99 64 196 97
4 71 43 37 103
4 74 186 56 95
4 109 164 34 115
4 50 81 158 112
4 122 69 92 70
4 195 145 45 106
4 110 143 174 175
4 157 30 158 147
4 40 69 32 41
4 50 158 148 147
4 141 155 164 115
4 122 123 69 41
4 142 186 143 175
4 60 39 61 42
4 40 51 69 70
4 120 31 123 41
4 157 174 36 175
4 50 148 89 68
4 48 78 155 115
4 52 83 51 70
4 151 56 66 95
4 71 61 43 42
4 169 148 34 147
4 100 193 39 42
4 40 81 51 199
4 110 174 32 112
4 109 30 145 106
4 100 66 193 95
4 169 34 78 115
4 190 92 83 70
4 50 89 81 199
4 54 86 170 68
4 74 56 45 167
4 142 143 43 103
4 153 59 64 97
4 99 196 166 167
4 169 78 170 202
4 142 193 186 95
4 192 128 89 199
4 74 45 36 106
4 110 31 143 103
4 76 184 59 97
4 142 43 193 42
4 52 51 128 199
4 189 201 91 202
4 120 37 31 103
4 74 36 186 175
4 195 196 184 97
4 141 164 140 183
4 157 158 174 112
4 109 145 164 183
4 195 184 145 183
4 110 32 31 41
4 157 36 30 106
4 76 140 184 183
4 171 172 206 181
4 178 172 261 136
4 256 261 255 136
4 256 257 261 245
4 180 150 206 207
4 60 119 39 210
4 118 215 241 263
4 178 205 172 181
4 216 243 238 244
4 162 217 233 232
4 180 206 131 181
4 179 137 119 210
4 216 204 217 232
4 220 237 219 229
4 216 217 243 159
4 259 258 262 224
4 240 254 237 229
4 153 64 227 208
4 161 205 258 224
4 240 237 238 223
4 226 227 233 208
4 234 228 254 229
4 171 248 137 210
4 160 132 204 232
4 180 131 138 159
4 133 251 213 252
4 171 206 248 207
4 162 138 217 159
4 161 258 243 244
4 220 225 237 223
4 151 150 166 212
4 260 247 257 245
4 259 262 214 263
4 151 66 150 207
4 234 254 209 253
4 162 233 250 208
4 242 241 262 263
4 171 137 172 136
4 161 243 131 159
4 160 204 225 223
4 161 131 205 181
4 179 255 137 136
4 216 238 204 223
4 100 39 248 210
4 260 213 247 252
4 226 233 132 232
4 134 214 215 263
4 180 138 150 212
4 178 261 239 245
4 259 246 258 244
4 178 239 205 224
4 240 238 246 244
4 242 262 239 224
4 99 250 64 208
4 240 246 254 253
4 242 239 247 245
4 135 219 228 229
4 99 166 250 212
4 259 214 246 253
4 118 241 251 252
4 100 248 66 207
4 134 209 214 253
4 162 250 138 212
4 242 247 241 252
4 71 187 61 280
4 102 281 197 280
4 122 92 82 203
4 17 18 82 117
4 122 82 123 117
4 19 264 273 265
4 267 279 222 20
4 125 273 270 265
4 267 272 279 176
4 19 116 18 117
4 21 25 286 24
4 23 28 26 20
4 23 285 28 27
4 218 286 275 24
4 85 53 84 288
4 235 236 231 266
4 221 222 28 20
4 267 222 231 230
4 268 38 129 203
4 125 270 197 188
4 126 287 272 176
4 277 270 276 265
4 267 231 272 266
4 125 197 187 280
4 190 129 92 203
4 277 276 287 176
4 19 18 264 22
4 17 82 38 203
4 102 197 90 188
4 126 84 287 288
4 284 130 285 27
4 121 276 264 265
4 71 37 187 177
4 120 123 116 117
4 198 88 127 191
4 221 16 25 24
4 23 26 15 22
4 121 279 276 176
4 235 231 124 230
4 125 187 273 177
4 278 271 236 266
4 277 287 283 288
4 284 285 274 282
4 278 127 271 191
4 269 275 16 24
4 200 283 53 288
4 23 15 285 282
4 121 26 279 20
4 21 124 25 230
4 19 273 116 177
4 200 90 283 188
4 126 271 84 191
4 269 16 130 27
4 17 38 15 282
4 221 25 222 230
4 121 264 26 22
4 120 116 37 177
4 60 61 281 280
4 277 283 270 188
4 126 272 271 266
4 268 274 38 282
4 85 84 88 191
4 17 15 18 22
4 221 28 16 27
4 93 94 73 55
4 85 88 67 87
4 80 49 79 87
4 44 104 73 72
4 146 33 67 168
4 211 165 149 55
4 8 47 14 154
4 105 104 108 144
4 105 108 29 107
4 7 139 13 75
4 44 165 194 98
4 200 53 77 168
4 8 1 101 4
4 2 5 152 58
4 260 6 213 3
4 105 35 104 72
4 96 57 182 75
4 7 14 139 154
4 146 29 33 107
4 7 13 10 9
4 12 13 57 75
4 85 67 53 168
4 44 73 165 55
4 63 152 62 58
4 8 101 47 46
4 96 182 194 144
4 60 281 119 4
4 12 5 6 3
4 173 185 35 72
4 65 149 94 55
4 146 67 49 87
4 114 113 47 154
4 163 108 182 144
4 12 6 13 9
4 173 35 111 156
4 163 182 139 75
4 260 257 6 9
4 105 29 35 156
4 163 139 113 154
4 256 10 257 9
4 146 49 29 156
4 163 113 108 107
4 80 111 49 156
4 102 101 281 4
4 12 57 5 58
4 44 194 104 144
4 96 194 62 98
4 2 0 5 3
4 93 73 185 72
4 179 119 1 4
4 200 77 90 46
4 114 33 113 107
4 7 10 14 11
4 96 62 57 58
4 133 213 0 3
4 102 90 101 46
4 256 255 10 11
4 63 62 249 98
4 114 47 77 46
4 179 1 255 11
4 211 249 165 98
4 114 77 33 168
4 198 79 88 87
4 8 14 1 11
CELL_TYPES 256
8
8
8
8
8
8
8
8
8
8
8
8
8
8
8
8
8
8
8
8
8
8
8
8
8
8
8
8
8
8
8
8
8
8
8
8
8
8
8
8
8
8
8
8
8
8
8
8
8
8
8
8
8
8
8
8
8
8
8
8
8
8
8
8
8
8
8
8
8
8
8
8
8
8
8
8
8
8
8
8
8
8
8
8
8
8
8
8
8
8
8
8
8
8
8
8
8
8
8
8
8
8
8
8
8
8
8
8
8
8
8
8
8
8
8
8
8
8
8
8
8
8
8
8
8
8
8
8
8
8
8
8
8
8
8
8
8
8
8
8
8
8
8
8
8
8
8
8
8
8
8
8
8
8
8
8
8
8
8
8
8
8
8
8
8
8
8
8
8
8
8
8
8
8
8
8
8
8
8
8
8
8
8
8
8
8
8
8
8
8
8
8
8
8
8
8
8
8
8
8
8
8
8
8
8
8
8
8
8
8
8
8
8
8
8
8
8
8
8
8
8
8
8
8
8
8
8
8
8
8
8
8
8
8
8
8
8
8
8
8
8
8
8
8
8
8
8
8
8
8
8
8
8
8
8
8
CELL_DATA 256
VECTORS vector_value float
0.123101 -1.05287 0
-0.134164 -0.203507 0
-0.159494 -0.767359 0
0.0436112 -1.35666 0
0.0916905 -0.852519 0
-0.148655 -0.209806 0
0.0113872 -0.574476 0
0.0535174 -0.489831 0
0.0882076 -0.757324 0
-0.205025 -0.401544 0
-0.230404 -0.101765 0
0.155221 -1.59046 0
-0.127116 -0.201918 0
-0.262193 -0.449092 0
-0.242917 -0.925113 0
-0.145327 -0.178418 0
-0.0495171 -0.254688 0
-0.330297 -0.652508 0
0.0499155 -0.463313 0
0.0810266 -0.817541 0
-0.48267 -0.625676 0
-0.177094 -0.165274 0
-0.148944 -0.571629 0
-0.347034 -0.823186 0
-0.371058 -0.464628 0
-0.12209 -0.112284 0
0.0599806 -0.608372 0
0.0709472 -0.555971 0
-0.044832 -0.851024 0
-0.087388 -0.130829 0
-0.173786 -0.522511 0
0.244512 -1.07236 0
-0.106313 -0.236164 0
-0.257464 -0.419685 0
-0.158672 -0.217331 0
-0.0641537 -0.794806 0
-0.0608223 -0.184553 0
0.227554 -1.52782 0
-0.0892727 -0.506249 0
-0.050806 -0.314092 0
0.0425898 -1.23792 0
-0.244953 -0.159467 0
-0.196019 -0.295464 0
0.136048 -1.31092 0
-0.109644 -0.585253 0
0.152624 -1.46657 0
-0.223064 -0.17018 0
-0.0194003 -0.506566 0
-0.213918 -0.137312 0
-0.197625 -0.328977 0
0.123352 -0.925785 0
-0.234444 -0.294636 0
-0.0389506 -0.402172 0
0.0104489 -0.394917 0
-0.243266 -0.443338 0
-0.170921 -0.0822038 0
0.142493 -1.18374 0
0.00357323 -0.812635 0
-0.11538 -0.129941 0
-0.0581525 -1.65441 0
-0.0846626 -1.33799 0
-0.212603 -0.414602 0
-0.0595996 -0.129452 0
0.0237411 -0.859603 0
0.369005 -0.373595 0
2.27551 -1.48652 0
1.99938 -1.31333 0
0.843845 -1.39949 0
-0.039067 -0.360368 0
-0.0390463 -0.534132 0
-0.544595 -1.63979 0
1.45433 -0.85106 0
-0.128255 -0.398199 0
0.0330941 -0.420419 0
0.0694978 -0.604113 0
0.183419 -0.637032 0
-0.192719 -0.381665 0
0.0267847 -0.999562 0
-0.0926069 -0.2677 0
0.0852456 -1.11714 0
0.0890796 -0.60454 0
0.0146942 -1.43388 0
0.841992 -1.29583 0
-0.117805 -0.709641 0
0.0105457 -1.38412 0
0.121558 -0.810732 0
0.0575217 -0.127077 0
-0.150854 -1.60853 0
-0.0262289 -0.22694 0
-0.806731 -1.01338 0
0.045545 -0.183877 0
-0.0470839 -0.164877 0
0.496088 -1.32444 0
-0.0373808 -0.961168 0
-0.137476 -0.330841 0
0.0936336 -1.14516 0
-0.204762 -1.42679 0
-0.0369659 -0.216617 0
0.268222 -0.96317 0
0.0863123 -0.800643 0
-0.229731 -2.0273 0
0.749033 -0.502083 0
0.132827 -0.401374 0
-0.176099 -1.24961 0
0.767748 -1.06538 0
1.83998 -1.15098 0
-0.281094 -0.54199 0
-0.00192735 -0.130401 0
-0.230002 -1.03379 0
0.129624 -1.68606 0
0.119328 -1.34186 0
-0.136481 -0.373117 0
1.16707 -1.37044 0
0.128835 -1.88174 0
0.94982 -1.29903 0
0.0453979 -0.540771 0
0.376838 -2.05872 0
0.0287006 -0.642818 0
0.234128 -0.931673 0
0.145853 -0.653379 0
-0.0156864 -1.04517 0
-0.0476061 -0.354375 0
0.0289962 -1.22846 0
-0.929253 -0.943966 0
0.0107234 -0.180331 0
0.319471 -0.850081 0
-0.0213195 -0.0959358 0
-0.200332 -0.780338 0
0.136585 -1.15011 0
0.588955 -3.6063 0
-0.132606 -0.912077 0
0.265115 -1.5913 0
-0.169107 -1.18873 0
0.753856 -2.20402 0
0.394438 -1.49553 0
1.30707 -3.01011 0
0.627904 -0.989871 0
-0.0315552 -1.68756 0
-0.123459 -0.596366 0
-0.223256 -1.25493 0
-0.791155 -2.51806 0
-0.0181226 -0.377783 0
0.149274 -0.293785 0
-0.111626 -1.59975 0
-0.909851 -1.81244 0
-0.179222 -1.64769 0
0.0529842 -0.644491 0
0.401205 -2.9845 0
0.331935 -0.447869 0
1.09052 -0.890247 0
0.099057 -1.06728 0
0.349465 -4.57096 0
-0.0404308 -0.694621 0
0.885495 -0.39031 0
0.257889 -1.268 0
0.200238 -0.892613 0
0.412856 -3.66149 0
0.280708 -0.227597 0
-0.413793 -2.9121 0
1.71562 -1.46548 0
-0.27105 -1.17921 0
-0.434613 -1.80985 0
0.0849952 -1.22267 0
-0.324511 -0.955123 0
0.154234 -1.13347 0
0.918439 -0.489064 0
-0.237816 -1.267 0
0.391671 -3.54539 0
0.139603 -1.65156 0
0.265728 -0.122499 0
0.00437593 -2.33314 0
0.0868361 -1.22068 0
-0.0902791 -0.8007 0
0.157236 -0.0997316 0
0.0469399 -1.26261 0
0.797977 -1.24101 0
-0.161275 -0.826953 0
-0.360256 -2.40887 0
0.242353 -0.423346 0
0.305297 -0.934628 0
-0.223268 -1.1861 0
0.501227 -1.5099 0
-0.782909 -1.88285 0
0.328295 -0.841651 0
-0.427431 -1.32135 0
0.304452 -2.05209 0
0.488597 -0.663593 0
0.145989 -0.680798 0
0.195003 -1.22108 0
0.111258 -0.660414 0
0.239489 -0.999965 0
-0.890569 -1.72957 0
-0.0118869 -0.735174 0
0.143175 -0.830374 0
-0.0285123 -0.999829 0
0.0761258 -0.576275 0
0.108305 -0.197293 0
-0.305066 -1.00883 0
-0.280978 -1.66597 0
-0.0323402 -0.495136 0
0.0335796 -0.296882 0
-0.493045 -0.720122 0
-0.523737 -1.33764 0
0.101318 -0.114041 0
0.274555 -4.03233 0
0.127313 -0.343061 0
-0.304072 -0.925239 0
0.12223 -0.271807 0
-0.264648 -1.08116 0
-1.0922 -1.62981 0
0.068825 -0.216082 0
0.0114601 -0.47581 0
-0.111087 -0.23275 0
0.164043 -0.275661 0
-0.128107 -0.681362 0
0.565525 -0.916644 0
0.190156 -2.50909 0
-0.563935 -2.47224 0
0.255823 -3.0929 0
-0.0861996 -0.184502 0
0.138686 -1.07358 0
-0.11427 -0.839035 0
0.0366082 -0.658628 0
-0.357865 -0.843578 0
-0.747589 -1.6627 0
-0.0479739 -0.251946 0
-0.0444481 -1.14915 0
-1.21952 -1.42839 0
0.0547259 -0.918121 0
0.0293984 -0.311741 0
-0.876562 -1.14865 0
0.31589 -0.993453 0
0.00404121 -0.516704 0
-0.292952 -0.651308 0
-0.0175337 -1.02693 0
0.52564 -3.58176 0
0.0782367 -0.295739 0
-0.210391 -0.588673 0
-0.294644 -1.7968 0
-0.484175 -0.674768 0
0.0578261 -0.811106 0
0.191001 -2.9352 0
0.0502677 -0.344154 0
-0.0174266 -0.251471 0
0.0745927 -1.46174 0
-0.0188237 -1.01109 0
-0.738849 -0.94402 0
0.265867 -2.99384 0
1.34919 -1.97516 0
0.329383 -1.42295 0
-0.00532374 -0.50494 0
2.22646 -2.85663 0
-0.134532 -1.24254 0
0.140844 -0.200524 0
0.0468743 -0.943881 0
0.937464 -3.49357 0
