# vtk DataFile Version 2.0
Unstructured Grid by M++
ASCII
DATASET UNSTRUCTURED_GRID
POINTS 289 float
  0.562500   1.000000 0
  0.562500   0.625000 0
  0.625000   1.000000 0
  0.562500   0.937500 0
  0.562500   0.562500 0
  0.625000   0.937500 0
  0.562500   0.875000 0
  0.625000   0.750000 0
  0.625000   0.625000 0
  0.562500   0.812500 0
  0.562500   0.750000 0
  0.562500   0.687500 0
  0.625000   0.875000 0
  0.625000   0.812500 0
  0.625000   0.687500 0
  0.687500   0.125000 0
  0.875000   0.062500 0
  0.625000   0.125000 0
  0.625000   0.187500 0
  0.625000   0.250000 0
  0.812500   0.187500 0
  1.000000   0.125000 0
  0.687500   0.187500 0
  0.750000   0.125000 0
  0.937500   0.062500 0
  0.937500   0.125000 0
  0.750000   0.187500 0
  0.812500   0.062500 0
  0.812500   0.125000 0
  0.875000   0.687500 0
  0.187500   0.250000 0
  0.437500   0.250000 0
  0.375000   0.187500 0
  0.812500   0.625000 0
  0.125000   0.187500 0
  0.937500   0.750000 0
  0.250000   0.312500 0
  0.500000   0.312500 0
  0.625000   0.062500 0
  0.437500   0.500000 0
  0.375000   0.125000 0
  0.437500   0.187500 0
  0.437500   0.437500 0
  0.437500   0.375000 0
  0.875000   0.875000 0
  0.187500   0.375000 0
  0.687500   0.562500 0
  0.687500   0.625000 0
  0.000000   0.125000 0
  0.937500   0.625000 0
  0.250000   0.125000 0
  0.375000   0.062500 0
  0.375000   0.000000 0
  0.812500   0.500000 0
  0.125000   0.000000 0
  0.937500   0.937500 0
  0.250000   0.437500 0
  0.687500   0.875000 0
  0.687500   0.937500 0
  0.000000   0.437500 0
  0.500000   0.500000 0
  0.500000   0.437500 0
  0.750000   0.937500 0
  0.750000   1.000000 0
  0.062500   0.500000 0
  1.000000   1.000000 0
  0.312500   0.500000 0
  0.875000   0.562500 0
  0.187500   0.062500 0
  0.437500   0.125000 0
  0.437500   0.062500 0
  0.500000   0.375000 0
  0.937500   0.812500 0
  0.937500   0.875000 0
  0.250000   0.375000 0
  0.687500   0.812500 0
  0.000000   0.375000 0
  0.750000   0.562500 0
  0.062500   0.125000 0
  1.000000   0.562500 0
  1.000000   0.625000 0
  0.312500   0.125000 0
  0.562500   0.125000 0
  0.437500   0.000000 0
  0.875000   0.437500 0
  0.875000   0.500000 0
  0.187500   0.000000 0
  0.937500   0.562500 0
  0.937500   0.500000 0
  0.250000   0.062500 0
  0.687500   0.500000 0
  0.000000   0.062500 0
  0.500000   0.062500 0
  1.000000   0.875000 0
  1.000000   0.937500 0
  0.312500   0.437500 0
  0.750000   0.875000 0
  0.062500   0.437500 0
  0.812500   0.937500 0
  0.125000   0.500000 0
  0.375000   0.500000 0
  0.625000   0.562500 0
  0.625000   0.500000 0
  0.437500   0.312500 0
  0.875000   0.812500 0
  0.875000   0.750000 0
  0.187500   0.312500 0
  0.812500   0.687500 0
  0.812500   0.750000 0
  0.125000   0.250000 0
  0.375000   0.250000 0
  1.000000   0.687500 0
  0.312500   0.187500 0
  0.750000   0.687500 0
  0.750000   0.625000 0
  0.062500   0.187500 0
  0.562500   0.250000 0
  0.562500   0.187500 0
  0.375000   1.000000 0
  0.500000   0.562500 0
  0.500000   0.250000 0
  0.750000   0.250000 0
  0.500000   0.125000 0
  0.500000   0.187500 0
  1.000000   0.187500 0
  0.625000   0.375000 0
  0.875000   0.375000 0
  1.000000   0.437500 0
  0.312500   0.000000 0
  0.562500   0.000000 0
  0.812500   0.000000 0
  0.250000   0.687500 0
  0.000000   0.687500 0
  0.500000   1.000000 0
  0.250000   1.000000 0
  0.000000   1.000000 0
  0.437500   0.687500 0
  0.437500   0.625000 0
  0.187500   0.625000 0
  0.687500   0.750000 0
  0.000000   0.312500 0
  0.000000   0.250000 0
  0.375000   0.375000 0
  0.375000   0.312500 0
  0.812500   0.812500 0
  0.125000   0.312500 0
  0.875000   0.625000 0
  0.187500   0.187500 0
  0.187500   0.125000 0
  0.937500   1.000000 0
  0.250000   0.562500 0
  0.250000   0.500000 0
  0.687500   1.000000 0
  0.000000   0.500000 0
  0.687500   0.687500 0
  0.000000   0.187500 0
  0.937500   0.687500 0
  0.250000   0.250000 0
  0.250000   0.187500 0
  0.187500   0.687500 0
  0.000000   0.750000 0
  0.250000   0.750000 0
  0.125000   0.625000 0
  0.750000   0.750000 0
  0.062500   0.250000 0
  0.875000   0.937500 0
  0.187500   0.500000 0
  0.187500   0.437500 0
  0.812500   0.562500 0
  0.125000   0.125000 0
  0.125000   0.062500 0
  0.375000   0.625000 0
  0.375000   0.687500 0
  1.000000   0.750000 0
  0.312500   0.250000 0
  0.312500   0.312500 0
  0.812500   0.312500 0
  0.562500   0.312500 0
  0.375000   0.750000 0
  0.500000   0.625000 0
  0.250000   0.625000 0
  0.312500   0.687500 0
  0.750000   0.812500 0
  0.062500   0.312500 0
  0.062500   0.375000 0
  1.000000   0.812500 0
  0.312500   0.375000 0
  0.562500   0.375000 0
  0.687500   0.437500 0
  0.000000   0.000000 0
  0.500000   0.000000 0
  0.937500   0.437500 0
  0.250000   0.000000 0
  0.375000   0.437500 0
  0.812500   0.875000 0
  0.125000   0.375000 0
  0.125000   0.437500 0
  0.625000   0.437500 0
  1.000000   0.500000 0
  0.312500   0.062500 0
  0.750000   0.500000 0
  0.062500   0.000000 0
  0.062500   0.062500 0
  0.562500   0.062500 0
  0.062500   0.750000 0
  0.312500   0.750000 0
  0.312500   0.625000 0
  0.312500   0.562500 0
  0.062500   0.562500 0
  0.187500   1.000000 0
  0.437500   0.562500 0
  0.875000   1.000000 0
  0.187500   0.562500 0
  0.500000   0.937500 0
  0.250000   0.937500 0
  0.312500   1.000000 0
  0.125000   0.750000 0
  0.125000   0.687500 0
  1.000000   0.000000 0
  0.000000   0.937500 0
  0.000000   0.875000 0
  0.875000   0.125000 0
  0.875000   0.187500 0
  0.062500   0.812500 0
  0.312500   0.812500 0
  0.000000   0.812500 0
  0.000000   0.625000 0
  0.000000   0.562500 0
  0.062500   1.000000 0
  0.062500   0.937500 0
  0.937500   0.187500 0
  0.937500   0.250000 0
  0.062500   0.687500 0
  0.062500   0.625000 0
  0.125000   1.000000 0
  1.000000   0.250000 0
  1.000000   0.312500 0
  0.062500   0.875000 0
  0.125000   0.812500 0
  0.375000   0.812500 0
  0.125000   0.875000 0
  0.375000   0.937500 0
  0.375000   0.875000 0
  0.187500   0.750000 0
  0.187500   0.812500 0
  0.437500   0.812500 0
  0.187500   0.875000 0
  0.437500   0.875000 0
  0.375000   0.562500 0
  0.812500   1.000000 0
  0.125000   0.562500 0
  0.437500   1.000000 0
  0.437500   0.937500 0
  0.187500   0.937500 0
  0.125000   0.937500 0
  0.500000   0.687500 0
  0.500000   0.750000 0
  0.500000   0.812500 0
  0.250000   0.812500 0
  0.250000   0.875000 0
  0.500000   0.875000 0
  0.437500   0.750000 0
  0.312500   0.875000 0
  0.312500   0.937500 0
  0.687500   0.250000 0
  0.687500   0.312500 0
  0.937500   0.312500 0
  0.875000   0.250000 0
  0.625000   0.000000 0
  0.875000   0.000000 0
  0.687500   0.375000 0
  0.937500   0.375000 0
  0.875000   0.312500 0
  0.625000   0.312500 0
  0.687500   0.000000 0
  0.937500   0.000000 0
  0.750000   0.312500 0
  0.750000   0.375000 0
  1.000000   0.375000 0
  0.812500   0.250000 0
  0.562500   0.437500 0
  0.562500   0.500000 0
  0.687500   0.062500 0
  0.750000   0.437500 0
  0.750000   0.000000 0
  0.750000   0.062500 0
  1.000000   0.062500 0
  0.812500   0.375000 0
  0.812500   0.437500 0
CELLS 256 1280
4 169 170 148 68
4 151 166 56 167
4 195 45 196 167
4 54 170 201 202
4 109 34 30 147
4 40 32 81 112
4 192 89 86 68
4 48 91 78 202
4 99 64 196 97
4 71 43 37 103
4 74 186 56 95
4 109 164 34 115
4 50 81 158 112
4 122 69 92 70
4 195 145 45 106
4 110 143 174 175
4 157 30 158 147
4 40 69 32 41
4 50 158 148 147
4 141 155 164 115
4 122 123 69 41
4 142 186 143 175
4 60 39 61 42
4 40 51 69 70
4 120 31 123 41
4 157 174 36 175
4 50 148 89 68
4 48 78 155 115
4 52 83 51 70
4 151 56 66 95
4 71 61 43 42
4 169 148 34 147
4 100 193 39 42
4 40 81 51 199
4 110 174 32 112
4 109 30 145 106
4 100 66 193 95
4 169 34 78 115
4 190 92 83 70
4 50 89 81 199
4 54 86 170 68
4 74 56 45 167
4 142 143 43 103
4 153 59 64 97
4 99 196 166 167
4 169 78 170 202
4 142 193 186 95
4 192 128 89 199
4 74 45 36 106
4 110 31 143 103
4 76 184 59 97
4 142 43 193 42
4 52 51 128 199
4 189 201 91 202
4 120 37 31 103
4 74 36 186 175
4 195 196 184 97
4 141 164 140 183
4 157 158 174 112
4 109 145 164 183
4 195 184 145 183
4 110 32 31 41
4 157 36 30 106
4 76 140 184 183
4 171 172 206 181
4 178 172 261 136
4 256 261 255 136
4 256 257 261 245
4 180 150 206 207
4 60 119 39 210
4 118 215 241 263
4 178 205 172 181
4 216 243 238 244
4 162 217 233 232
4 180 206 131 181
4 179 137 119 210
4 216 204 217 232
4 220 237 219 229
4 216 217 243 159
4 259 258 262 224
4 240 254 237 229
4 153 64 227 208
4 161 205 258 224
4 240 237 238 223
4 226 227 233 208
4 234 228 254 229
4 171 248 137 210
4 160 132 204 232
4 180 131 138 159
4 133 251 213 252
4 171 206 248 207
4 162 138 217 159
4 161 258 243 244
4 220 225 237 223
4 151 150 166 212
4 260 247 257 245
4 259 262 214 263
4 151 66 150 207
4 234 254 209 253
4 162 233 250 208
4 242 241 262 263
4 171 137 172 136
4 161 243 131 159
4 160 204 225 223
4 161 131 205 181
4 179 255 137 136
4 216 238 204 223
4 100 39 248 210
4 260 213 247 252
4 226 233 132 232
4 134 214 215 263
4 180 138 150 212
4 178 261 239 245
4 259 246 258 244
4 178 239 205 224
4 240 238 246 244
4 242 262 239 224
4 99 250 64 208
4 240 246 254 253
4 242 239 247 245
4 135 219 228 229
4 99 166 250 212
4 259 214 246 253
4 118 241 251 252
4 100 248 66 207
4 134 209 214 253
4 162 250 138 212
4 242 247 241 252
4 71 187 61 280
4 102 281 197 280
4 122 92 82 203
4 17 18 82 117
4 122 82 123 117
4 19 264 273 265
4 267 279 222 20
4 125 273 270 265
4 267 272 279 176
4 19 116 18 117
4 21 25 286 24
4 23 28 26 20
4 23 285 28 27
4 218 286 275 24
4 85 53 84 288
4 235 236 231 266
4 221 222 28 20
4 267 222 231 230
4 268 38 129 203
4 125 270 197 188
4 126 287 272 176
4 277 270 276 265
4 267 231 272 266
4 125 197 187 280
4 190 129 92 203
4 277 276 287 176
4 19 18 264 22
4 17 82 38 203
4 102 197 90 188
4 126 84 287 288
4 284 130 285 27
4 121 276 264 265
4 71 37 187 177
4 120 123 116 117
4 198 88 127 191
4 221 16 25 24
4 23 26 15 22
4 121 279 276 176
4 235 231 124 230
4 125 187 273 177
4 278 271 236 266
4 277 287 283 288
4 284 285 274 282
4 278 127 271 191
4 269 275 16 24
4 200 283 53 288
4 23 15 285 282
4 121 26 279 20
4 21 124 25 230
4 19 273 116 177
4 200 90 283 188
4 126 271 84 191
4 269 16 130 27
4 17 38 15 282
4 221 25 222 230
4 121 264 26 22
4 120 116 37 177
4 60 61 281 280
4 277 283 270 188
4 126 272 271 266
4 268 274 38 282
4 85 84 88 191
4 17 15 18 22
4 221 28 16 27
4 93 94 73 55
4 85 88 67 87
4 80 49 79 87
4 44 104 73 72
4 146 33 67 168
4 211 165 149 55
4 8 47 14 154
4 105 104 108 144
4 105 108 29 107
4 7 139 13 75
4 44 165 194 98
4 200 53 77 168
4 8 1 101 4
4 2 5 152 58
4 260 6 213 3
4 105 35 104 72
4 96 57 182 75
4 7 14 139 154
4 146 29 33 107
4 7 13 10 9
4 12 13 57 75
4 85 67 53 168
4 44 73 165 55
4 63 152 62 58
4 8 101 47 46
4 96 182 194 144
4 60 281 119 4
4 12 5 6 3
4 173 185 35 72
4 65 149 94 55
4 146 67 49 87
4 114 113 47 154
4 163 108 182 144
4 12 6 13 9
4 173 35 111 156
4 163 182 139 75
4 260 257 6 9
4 105 29 35 156
4 163 139 113 154
4 256 10 257 9
4 146 49 29 156
4 163 113 108 107
4 80 111 49 156
4 102 101 281 4
4 12 57 5 58
4 44 194 104 144
4 96 194 62 98
4 2 0 5 3
4 93 73 185 72
4 179 119 1 4
4 200 77 90 46
4 114 33 113 107
4 7 10 14 11
4 96 62 57 58
4 133 213 0 3
4 102 90 101 46
4 256 255 10 11
4 63 62 249 98
4 114 47 77 46
4 179 1 255 11
4 211 249 165 98
4 114 77 33 168
4 198 79 88 87
4 8 14 1 11
CELL_TYPES 256
8
8
8
8
8
8
8
8
8
8
8
8
8
8
8
8
8
8
8
8
8
8
8
8
8
8
8
8
8
8
8
8
8
8
8
8
8
8
8
8
8
8
8
8
8
8
8
8
8
8
8
8
8
8
8
8
8
8
8
8
8
8
8
8
8
8
8
8
8
8
8
8
8
8
8
8
8
8
8
8
8
8
8
8
8
8
8
8
8
8
8
8
8
8
8
8
8
8
8
8
8
8
8
8
8
8
8
8
8
8
8
8
8
8
8
8
8
8
8
8
8
8
8
8
8
8
8
8
8
8
8
8
8
8
8
8
8
8
8
8
8
8
8
8
8
8
8
8
8
8
8
8
8
8
8
8
8
8
8
8
8
8
8
8
8
8
8
8
8
8
8
8
8
8
8
8
8
8
8
8
8
8
8
8
8
8
8
8
8
8
8
8
8
8
8
8
8
8
8
8
8
8
8
8
8
8
8
8
8
8
8
8
8
8
8
8
8
8
8
8
8
8
8
8
8
8
8
8
8
8
8
8
8
8
8
8
8
8
8
8
8
8
8
8
8
8
8
8
8
8
8
8
8
8
8
8
CELL_DATA 256
VECTORS vector_value float
0.00493375 -0.0647136 0
0.00831438 -0.987066 0
0.0135274 -0.375111 0
0.0336453 -0.174232 0
-0.0178092 -0.0771129 0
0.417898 -2.3622 0
-0.0337629 -0.149385 0
0.0154228 -0.265828 0
0.0647099 -0.178862 0
0.300202 -1.86567 0
1.31872 -3.29479 0
-0.0626335 -0.177387 0
0.107633 -0.323115 0
-0.249332 -3.14367 0
-0.0212822 -0.31439 0
0.721062 -3.2399 0
0.0341355 -0.149654 0
-0.883513 -7.1126 0
0.0172493 -0.0895719 0
-0.0445347 -0.190365 0
-1.40284 -3.98013 0
2.18462 -5.56172 0
0.125679 -0.714245 0
-0.614907 -7.54016 0
-0.0912014 -5.01095 0
0.22077 -1.00156 0
0.00194678 -0.0704986 0
-0.022546 -0.253793 0
0.0626327 -6.96809 0
-0.555928 -2.74358 0
0.0907358 -0.765824 0
-0.00402699 -0.0639059 0
-0.0934182 -2.8574 0
-0.738744 -3.16918 0
0.562912 -3.00535 0
-0.0218081 -0.14201 0
-0.622937 -4.69544 0
-0.0214887 -0.130671 0
0.138451 -3.41138 0
-0.146435 -0.384295 0
0.0055674 -0.064872 0
0.31692 -0.585811 0
1.34938 -3.27782 0
0.0190508 -0.0457891 0
0.0422789 -0.303996 0
0.00835141 -0.115076 0
0.786786 -4.39365 0
-0.222015 -0.85 0
0.0515958 -0.213643 0
1.66058 -5.06833 0
-0.0047674 -0.027276 0
0.45234 -2.88349 0
-0.0905943 -2.86134 0
0.0202277 -0.199954 0
0.384391 -3.02904 0
0.408186 -1.35831 0
-0.00735391 -0.135926 0
-0.0267903 -0.109126 0
0.246874 -0.601408 0
-0.0810455 -0.201331 0
-0.0412984 -0.135748 0
0.565084 -4.36907 0
0.0501366 -0.215435 0
-0.0186832 -0.0623932 0
-0.98539 -3.49133 0
-1.36847 -4.83757 0
-1.63042 -1.98747 0
-1.52849 -2.03347 0
-0.407785 -1.37824 0
-0.0430258 -0.54225 0
0.759508 -0.958857 0
-0.0364481 -2.12881 0
0.190462 -0.162825 0
0.0446209 -0.142516 0
-0.159027 -0.98293 0
-0.322111 -0.765285 0
0.0837427 -0.202627 0
0.13782 -0.794624 0
0.0934254 -0.137257 0
0.846047 -1.20158 0
0.342271 -0.433738 0
0.039251 -0.105305 0
0.918377 -1.2034 0
0.21138 -0.294972 0
0.0386431 -0.174102 0
0.379245 -0.679378 0
-1.14682 -4.83299 0
0.0276923 -0.272736 0
0.0263386 -0.308082 0
0.687367 -1.15341 0
-1.03425 -4.5191 0
0.0672313 -0.134224 0
0.496501 -0.631585 0
0.0763898 -0.540509 0
-0.186269 -0.7535 0
-0.538206 -1.90331 0
0.49443 -1.26407 0
-0.572372 -1.82337 0
0.684827 -1.01365 0
0.0622915 -0.178108 0
0.30061 -0.552212 0
-1.52074 -4.86733 0
0.142186 -0.278557 0
0.06326 -0.389544 0
0.389769 -0.915114 0
-1.41012 -1.86309 0
0.133089 -0.206386 0
-0.494612 -3.78213 0
0.0384361 -1.34216 0
0.0190918 -0.249845 0
0.56231 -0.851511 0
-0.0877094 -0.417293 0
-0.483463 -3.29359 0
0.956012 -1.25726 0
0.753223 -1.25429 0
0.389988 -0.272666 0
0.641188 -0.895725 0
0.0690124 -0.1981 0
0.627949 -0.792852 0
0.110251 -1.58119 0
0.0638663 -1.10234 0
0.0253114 -0.234099 0
0.485229 -0.985181 0
0.760102 -0.844963 0
-1.00365 -5.09442 0
0.7018 -0.971097 0
0.0137315 -0.170065 0
0.372194 -1.25613 0
-0.206324 -0.512453 0
-0.154917 -0.347429 0
-0.118738 -0.330157 0
-0.337524 -0.12589 0
-0.578862 -0.538791 0
-0.359587 -0.0290994 0
-0.31028 -0.60139 0
-0.0660224 -0.0947566 0
-0.607587 -0.943251 0
-0.841227 -0.14323 0
0.00454956 -0.045652 0
-0.0288327 -0.163335 0
0.0236494 -0.161248 0
0.00220804 -0.0520511 0
-0.0228246 -0.888543 0
-0.0490282 -0.0801817 0
0.0186489 -0.411396 0
-0.0454225 -0.110909 0
-0.030385 -0.0546407 0
-0.0790066 -0.183837 0
-0.231518 -1.28948 0
-0.0345058 -0.133391 0
-0.284918 -0.370674 0
-0.223743 -0.314846 0
0.0280769 -0.453323 0
-0.0868089 -0.337546 0
-1.09415 -0.0734297 0
-0.0641211 -0.0621816 0
-0.121219 -0.355387 0
-0.150221 -1.13882 0
0.016911 -0.103041 0
-0.423842 -0.232407 0
-0.21478 -0.395294 0
-0.774726 -0.624568 0
-0.0110982 -0.294645 0
0.0248613 -0.150013 0
-0.136282 -0.224613 0
-0.771553 -0.687577 0
-0.00493007 -0.0329122 0
-0.125605 -0.215107 0
-0.0459803 -0.202169 0
-0.0182884 -0.264227 0
-0.00723738 -0.0496811 0
-0.0204087 -0.252107 0
0.0175636 -0.183718 0
0.0477466 -0.247908 0
-0.015983 -0.0928264 0
-0.741349 -0.487222 0
0.00398015 -0.0326518 0
-0.532343 -0.155716 0
-0.015011 -0.181163 0
-0.146632 -0.742141 0
0.0396775 -0.366493 0
-0.0435153 -0.0605486 0
0.0283548 -0.0936925 0
-1.1071 -0.345043 0
-0.381804 -0.494376 0
-0.0575141 -0.215108 0
-0.00936443 -0.129694 0
-0.135842 -0.542557 0
-0.0263655 -0.0578131 0
-0.110983 -0.943437 0
-0.210385 -0.0936425 0
0.0270047 -0.343952 0
-0.241206 -1.47956 0
-0.00236799 -1.02156 0
0.00457635 -0.368208 0
-0.290792 -0.870064 0
-0.10963 -0.605244 0
0.532174 -0.84832 0
-0.125963 -0.627189 0
-0.104813 -0.216985 0
-0.0240831 -0.266647 0
-1.82573 -1.55602 0
-0.507253 -0.899326 0
0.115292 -0.419705 0
-0.038723 -0.424428 0
0.483342 -1.10098 0
-0.144225 -0.837325 0
-0.186705 -0.851037 0
-0.931222 -1.67922 0
-0.589216 -0.944937 0
-0.0328337 -0.351686 0
-1.39062 -0.679878 0
-0.486826 -0.986838 0
0.106225 -0.616068 0
-0.438537 -0.928291 0
0.247755 -1.30254 0
0.0285472 -0.401085 0
-0.852419 -0.764017 0
-0.021212 -0.106983 0
-0.315267 -1.25452 0
-0.123217 -0.831894 0
0.297874 -1.52551 0
-0.0677871 -0.886985 0
0.023901 -0.238186 0
-0.429603 -0.615142 0
-0.705591 -0.910512 0
-0.108929 -0.586712 0
-1.04542 -1.04406 0
-0.941348 -1.10183 0
-0.100436 -0.98196 0
-0.216081 -0.539389 0
-1.43991 -1.02989 0
-0.145694 -1.16684 0
-0.00105434 -0.302568 0
-0.0358712 -0.351975 0
-0.00671185 -0.389463 0
-0.230521 -1.02422 0
-0.618017 -0.696267 0
-0.441476 -0.757007 0
0.62938 -1.11346 0
-0.113925 -1.04403 0
-0.0915998 -0.208416 0
0.0361111 -0.248186 0
0.0305687 -0.321514 0
-1.21626 -0.790744 0
-0.237229 -1.39879 0
0.652321 -0.940411 0
0.0261153 -0.362607 0
-1.54892 -0.826906 0
0.235918 -0.575155 0
0.100452 -0.2369 0
-0.561655 -0.424942 0
0.453133 -1.01843 0
0.0579005 -0.433547 0
-0.0321998 -0.302255 0
-0.311281 -0.478317 0
