# vtk DataFile Version 2.0
Unstructured Grid by M++
ASCII
DATASET UNSTRUCTURED_GRID
POINTS 81 float
  1.000000   0.625000 0
  0.750000   0.375000 0
  1.000000   0.000000 0
  0.875000   0.875000 0
  0.750000   0.125000 0
  1.000000   1.000000 0
  0.875000   0.250000 0
  0.625000   0.875000 0
  1.000000   0.750000 0
  0.875000   0.000000 0
  1.000000   0.250000 0
  0.625000   0.375000 0
  0.875000   0.500000 0
  0.625000   0.625000 0
  1.000000   0.500000 0
  0.750000   0.500000 0
  0.750000   1.000000 0
  1.000000   0.125000 0
  0.625000   0.250000 0
  0.750000   0.750000 0
  0.625000   0.000000 0
  0.125000   0.375000 0
  0.000000   0.500000 0
  0.125000   0.625000 0
  0.625000   1.000000 0
  1.000000   0.875000 0
  0.875000   0.125000 0
  0.500000   0.250000 0
  0.625000   0.500000 0
  0.250000   0.625000 0
  0.000000   0.625000 0
  0.375000   0.500000 0
  0.375000   0.000000 0
  0.000000   0.125000 0
  0.125000   0.875000 0
  0.875000   1.000000 0
  0.750000   0.250000 0
  0.375000   0.375000 0
  0.250000   0.375000 0
  0.625000   0.750000 0
  0.125000   0.125000 0
  0.500000   0.000000 0
  0.250000   0.875000 0
  0.125000   0.500000 0
  0.500000   0.375000 0
  0.125000   0.000000 0
  0.250000   0.750000 0
  0.250000   0.500000 0
  0.000000   0.875000 0
  0.875000   0.625000 0
  0.500000   0.750000 0
  0.750000   0.625000 0
  0.250000   0.000000 0
  0.375000   0.750000 0
  0.750000   0.875000 0
  0.625000   0.125000 0
  0.250000   0.250000 0
  0.375000   1.000000 0
  0.375000   0.250000 0
  0.000000   0.375000 0
  0.500000   1.000000 0
  0.875000   0.750000 0
  0.750000   0.000000 0
  0.375000   0.125000 0
  0.500000   0.875000 0
  0.000000   0.000000 0
  0.125000   0.750000 0
  0.500000   0.625000 0
  0.125000   0.250000 0
  0.500000   0.125000 0
  0.250000   1.000000 0
  0.250000   0.125000 0
  0.000000   1.000000 0
  0.375000   0.875000 0
  0.000000   0.750000 0
  0.375000   0.625000 0
  0.000000   0.250000 0
  0.125000   1.000000 0
  1.000000   0.375000 0
  0.500000   0.500000 0
  0.875000   0.375000 0
CELLS 64 320
4 56 71 58 63
4 27 58 69 63
4 41 69 32 63
4 76 33 68 40
4 27 44 58 37
4 79 31 44 37
4 56 38 68 21
4 56 58 38 37
4 52 32 71 63
4 47 38 31 37
4 76 68 59 21
4 22 59 43 21
4 65 45 33 40
4 47 43 38 21
4 52 71 45 40
4 56 68 71 40
4 74 30 66 23
4 46 66 29 23
4 22 43 30 23
4 72 48 77 34
4 46 53 42 73
4 50 64 53 73
4 70 42 57 73
4 74 66 48 34
4 46 42 66 34
4 47 29 43 23
4 70 77 42 34
4 60 57 64 73
4 79 67 31 75
4 47 31 29 75
4 50 53 67 75
4 46 29 53 75
4 10 78 6 80
4 36 6 1 80
4 15 1 12 80
4 36 4 6 26
4 14 12 78 80
4 2 17 9 26
4 36 18 4 55
4 15 28 1 11
4 62 4 20 55
4 10 6 17 26
4 27 18 44 11
4 62 9 4 26
4 27 69 18 55
4 36 1 18 11
4 41 20 69 55
4 79 44 28 11
4 16 24 54 7
4 19 54 39 7
4 50 39 64 7
4 8 25 61 3
4 60 64 24 7
4 79 28 67 13
4 19 51 61 49
4 8 61 0 49
4 15 51 28 13
4 19 39 51 13
4 50 67 39 13
4 19 61 54 3
4 14 0 12 49
4 5 35 25 3
4 15 12 51 49
4 16 54 35 3
CELL_TYPES 64
8
8
8
8
8
8
8
8
8
8
8
8
8
8
8
8
8
8
8
8
8
8
8
8
8
8
8
8
8
8
8
8
8
8
8
8
8
8
8
8
8
8
8
8
8
8
8
8
8
8
8
8
8
8
8
8
8
8
8
8
8
8
8
8
CELL_DATA 64
VECTORS vector_value float
0.0315744 -0.110903 0
0.0804259 -0.268047 0
-0.00684989 -0.220477 0
0.00401797 -0.458271 0
0.838811 -0.639042 0
1.49761 -0.699398 0
0.01186 -0.190106 0
0.183352 -0.195373 0
-0.0157556 -0.148791 0
1.63895 -0.7466 0
-0.0433509 -0.383834 0
0.0183923 -0.288605 0
0.0116906 -0.389178 0
0.836592 -1.01133 0
0.0307694 -0.10504 0
0.0120823 -0.0393609 0
0.257163 -1.75127 0
0.534208 -1.37385 0
0.489349 -1.10849 0
-0.422239 -1.61292 0
-0.231655 -0.235097 0
-0.104166 -0.186337 0
-0.542943 -0.208103 0
-0.00766358 -1.91848 0
-0.157887 -1.1894 0
0.668138 -1.29388 0
-0.872332 -1.09841 0
0.103803 -0.679892 0
0.351702 -0.496085 0
0.73946 -0.74083 0
-0.0157303 -0.273702 0
0.12578 -0.274217 0
0.43811 -0.73462 0
1.39044 -2.78547 0
-0.0393729 -2.37583 0
1.7298 -3.27268 0
0.0367422 -0.363598 0
0.516378 -3.79322 0
0.819826 -1.60901 0
0.158889 -1.81922 0
0.0354008 -0.857353 0
0.819087 -1.91238 0
1.61382 -0.841598 0
0.227685 -2.29425 0
0.202541 -0.329343 0
1.84997 -2.22995 0
0.00472425 -0.19169 0
0.897629 -0.695421 0
0.163561 -1.26373 0
0.716814 -1.54196 0
0.132843 -0.832669 0
0.0197158 -0.656207 0
0.514999 -1.44128 0
0.103551 -0.158532 0
0.268458 -2.36726 0
-0.0903207 -0.66491 0
0.088866 -1.11106 0
0.188725 -0.975621 0
0.071351 -0.31917 0
0.346191 -1.43985 0
-0.0757876 -0.368591 0
-0.181249 -0.686202 0
-0.18899 -2.72253 0
-0.255916 -1.00947 0
