# vtk DataFile Version 2.0
Unstructured Grid by M++
ASCII
DATASET UNSTRUCTURED_GRID
POINTS 81 float
  1.000000   0.625000 0
  0.750000   0.375000 0
  1.000000   0.000000 0
  0.875000   0.875000 0
  0.750000   0.125000 0
  1.000000   1.000000 0
  0.875000   0.250000 0
  0.625000   0.875000 0
  1.000000   0.750000 0
  0.875000   0.000000 0
  1.000000   0.250000 0
  0.625000   0.375000 0
  0.875000   0.500000 0
  0.625000   0.625000 0
  1.000000   0.500000 0
  0.750000   0.500000 0
  0.750000   1.000000 0
  1.000000   0.125000 0
  0.625000   0.250000 0
  0.750000   0.750000 0
  0.625000   0.000000 0
  0.125000   0.375000 0
  0.000000   0.500000 0
  0.125000   0.625000 0
  0.625000   1.000000 0
  1.000000   0.875000 0
  0.875000   0.125000 0
  0.500000   0.250000 0
  0.625000   0.500000 0
  0.250000   0.625000 0
  0.000000   0.625000 0
  0.375000   0.500000 0
  0.375000   0.000000 0
  0.000000   0.125000 0
  0.125000   0.875000 0
  0.875000   1.000000 0
  0.750000   0.250000 0
  0.375000   0.375000 0
  0.250000   0.375000 0
  0.625000   0.750000 0
  0.125000   0.125000 0
  0.500000   0.000000 0
  0.250000   0.875000 0
  0.125000   0.500000 0
  0.500000   0.375000 0
  0.125000   0.000000 0
  0.250000   0.750000 0
  0.250000   0.500000 0
  0.000000   0.875000 0
  0.875000   0.625000 0
  0.500000   0.750000 0
  0.750000   0.625000 0
  0.250000   0.000000 0
  0.375000   0.750000 0
  0.750000   0.875000 0
  0.625000   0.125000 0
  0.250000   0.250000 0
  0.375000   1.000000 0
  0.375000   0.250000 0
  0.000000   0.375000 0
  0.500000   1.000000 0
  0.875000   0.750000 0
  0.750000   0.000000 0
  0.375000   0.125000 0
  0.500000   0.875000 0
  0.000000   0.000000 0
  0.125000   0.750000 0
  0.500000   0.625000 0
  0.125000   0.250000 0
  0.500000   0.125000 0
  0.250000   1.000000 0
  0.250000   0.125000 0
  0.000000   1.000000 0
  0.375000   0.875000 0
  0.000000   0.750000 0
  0.375000   0.625000 0
  0.000000   0.250000 0
  0.125000   1.000000 0
  1.000000   0.375000 0
  0.500000   0.500000 0
  0.875000   0.375000 0
CELLS 64 320
4 56 71 58 63
4 27 58 69 63
4 41 69 32 63
4 76 33 68 40
4 27 44 58 37
4 79 31 44 37
4 56 38 68 21
4 56 58 38 37
4 52 32 71 63
4 47 38 31 37
4 76 68 59 21
4 22 59 43 21
4 65 45 33 40
4 47 43 38 21
4 52 71 45 40
4 56 68 71 40
4 74 30 66 23
4 46 66 29 23
4 22 43 30 23
4 72 48 77 34
4 46 53 42 73
4 50 64 53 73
4 70 42 57 73
4 74 66 48 34
4 46 42 66 34
4 47 29 43 23
4 70 77 42 34
4 60 57 64 73
4 79 67 31 75
4 47 31 29 75
4 50 53 67 75
4 46 29 53 75
4 10 78 6 80
4 36 6 1 80
4 15 1 12 80
4 36 4 6 26
4 14 12 78 80
4 2 17 9 26
4 36 18 4 55
4 15 28 1 11
4 62 4 20 55
4 10 6 17 26
4 27 18 44 11
4 62 9 4 26
4 27 69 18 55
4 36 1 18 11
4 41 20 69 55
4 79 44 28 11
4 16 24 54 7
4 19 54 39 7
4 50 39 64 7
4 8 25 61 3
4 60 64 24 7
4 79 28 67 13
4 19 51 61 49
4 8 61 0 49
4 15 51 28 13
4 19 39 51 13
4 50 67 39 13
4 19 61 54 3
4 14 0 12 49
4 5 35 25 3
4 15 12 51 49
4 16 54 35 3
CELL_TYPES 64
8
8
8
8
8
8
8
8
8
8
8
8
8
8
8
8
8
8
8
8
8
8
8
8
8
8
8
8
8
8
8
8
8
8
8
8
8
8
8
8
8
8
8
8
8
8
8
8
8
8
8
8
8
8
8
8
8
8
8
8
8
8
8
8
CELL_DATA 64
VECTORS vector_value float
0.329824 -0.826986 0
0.0467815 -0.191205 0
0.036434 -0.161708 0
0.134454 -0.458545 0
0.0790242 -0.231448 0
-0.0178101 -0.245106 0
0.904975 -2.86066 0
-0.157183 -0.909987 0
0.29554 -1.77545 0
0.282623 -1.19096 0
0.772716 -1.30169 0
0.503575 -3.06761 0
0.00652302 -0.316758 0
0.241118 -0.845897 0
0.0801661 -2.88824 0
0.661063 -3.74578 0
-0.13084 -2.21746 0
-0.380589 -2.12134 0
-0.425467 -2.91824 0
-0.30641 -1.36288 0
-0.95849 -1.16198 0
-0.376826 -0.298017 0
-1.07454 -1.0953 0
-0.211843 -1.81412 0
-0.712119 -1.69599 0
-0.232362 -1.62293 0
-0.809771 -1.2362 0
-1.10383 -0.86984 0
-0.112472 -0.237669 0
-0.0980901 -0.519141 0
-0.106531 -0.190017 0
-0.163149 -0.606515 0
-0.221968 -1.53751 0
-0.0650083 -0.527043 0
-0.0988137 -0.923506 0
-0.437663 -1.27863 0
0.0746897 -1.39863 0
-0.137742 -0.326335 0
0.145342 -0.597153 0
-0.271984 -0.259546 0
0.0591035 -0.634116 0
-0.275796 -0.759722 0
0.0706806 -0.31946 0
-0.118827 -1.77673 0
0.085635 -0.141981 0
-0.0696317 -0.312204 0
0.0644962 -0.120661 0
-0.0900081 -0.0687413 0
-0.283649 -0.602061 0
0.14293 -0.408745 0
-0.125778 -0.56699 0
0.183882 -1.418 0
-0.651599 -0.87544 0
-0.0134115 -0.0335549 0
0.165822 -0.988851 0
-0.0225208 -1.40818 0
0.0262743 -0.157825 0
0.181588 -0.169735 0
-0.031754 -0.297898 0
0.242989 -0.636157 0
-0.0098201 -1.48411 0
0.0494861 -1.07171 0
-0.035916 -1.02654 0
0.0423128 -0.886568 0
