# vtk DataFile Version 2.0
Unstructured Grid by M++
ASCII
DATASET UNSTRUCTURED_GRID
POINTS 81 float
  1.000000   0.625000 0
  0.750000   0.375000 0
  1.000000   0.000000 0
  0.875000   0.875000 0
  0.750000   0.125000 0
  1.000000   1.000000 0
  0.875000   0.250000 0
  0.625000   0.875000 0
  1.000000   0.750000 0
  0.875000   0.000000 0
  1.000000   0.250000 0
  0.625000   0.375000 0
  0.875000   0.500000 0
  0.625000   0.625000 0
  1.000000   0.500000 0
  0.750000   0.500000 0
  0.750000   1.000000 0
  1.000000   0.125000 0
  0.625000   0.250000 0
  0.750000   0.750000 0
  0.625000   0.000000 0
  0.125000   0.375000 0
  0.000000   0.500000 0
  0.125000   0.625000 0
  0.625000   1.000000 0
  1.000000   0.875000 0
  0.875000   0.125000 0
  0.500000   0.250000 0
  0.625000   0.500000 0
  0.250000   0.625000 0
  0.000000   0.625000 0
  0.375000   0.500000 0
  0.375000   0.000000 0
  0.000000   0.125000 0
  0.125000   0.875000 0
  0.875000   1.000000 0
  0.750000   0.250000 0
  0.375000   0.375000 0
  0.250000   0.375000 0
  0.625000   0.750000 0
  0.125000   0.125000 0
  0.500000   0.000000 0
  0.250000   0.875000 0
  0.125000   0.500000 0
  0.500000   0.375000 0
  0.125000   0.000000 0
  0.250000   0.750000 0
  0.250000   0.500000 0
  0.000000   0.875000 0
  0.875000   0.625000 0
  0.500000   0.750000 0
  0.750000   0.625000 0
  0.250000   0.000000 0
  0.375000   0.750000 0
  0.750000   0.875000 0
  0.625000   0.125000 0
  0.250000   0.250000 0
  0.375000   1.000000 0
  0.375000   0.250000 0
  0.000000   0.375000 0
  0.500000   1.000000 0
  0.875000   0.750000 0
  0.750000   0.000000 0
  0.375000   0.125000 0
  0.500000   0.875000 0
  0.000000   0.000000 0
  0.125000   0.750000 0
  0.500000   0.625000 0
  0.125000   0.250000 0
  0.500000   0.125000 0
  0.250000   1.000000 0
  0.250000   0.125000 0
  0.000000   1.000000 0
  0.375000   0.875000 0
  0.000000   0.750000 0
  0.375000   0.625000 0
  0.000000   0.250000 0
  0.125000   1.000000 0
  1.000000   0.375000 0
  0.500000   0.500000 0
  0.875000   0.375000 0
CELLS 64 320
4 56 71 58 63
4 27 58 69 63
4 41 69 32 63
4 76 33 68 40
4 27 44 58 37
4 79 31 44 37
4 56 38 68 21
4 56 58 38 37
4 52 32 71 63
4 47 38 31 37
4 76 68 59 21
4 22 59 43 21
4 65 45 33 40
4 47 43 38 21
4 52 71 45 40
4 56 68 71 40
4 74 30 66 23
4 46 66 29 23
4 22 43 30 23
4 72 48 77 34
4 46 53 42 73
4 50 64 53 73
4 70 42 57 73
4 74 66 48 34
4 46 42 66 34
4 47 29 43 23
4 70 77 42 34
4 60 57 64 73
4 79 67 31 75
4 47 31 29 75
4 50 53 67 75
4 46 29 53 75
4 10 78 6 80
4 36 6 1 80
4 15 1 12 80
4 36 4 6 26
4 14 12 78 80
4 2 17 9 26
4 36 18 4 55
4 15 28 1 11
4 62 4 20 55
4 10 6 17 26
4 27 18 44 11
4 62 9 4 26
4 27 69 18 55
4 36 1 18 11
4 41 20 69 55
4 79 44 28 11
4 16 24 54 7
4 19 54 39 7
4 50 39 64 7
4 8 25 61 3
4 60 64 24 7
4 79 28 67 13
4 19 51 61 49
4 8 61 0 49
4 15 51 28 13
4 19 39 51 13
4 50 67 39 13
4 19 61 54 3
4 14 0 12 49
4 5 35 25 3
4 15 12 51 49
4 16 54 35 3
CELL_TYPES 64
8
8
8
8
8
8
8
8
8
8
8
8
8
8
8
8
8
8
8
8
8
8
8
8
8
8
8
8
8
8
8
8
8
8
8
8
8
8
8
8
8
8
8
8
8
8
8
8
8
8
8
8
8
8
8
8
8
8
8
8
8
8
8
8
CELL_DATA 64
VECTORS vector_value float
-0.171223 -3.34621 0
-0.360462 -0.488479 0
-0.00342863 -0.27622 0
0.0580849 -0.256003 0
-0.360224 -0.788851 0
-0.828117 -2.14047 0
-0.11343 -1.8294 0
-1.22273 -2.22173 0
-0.0467951 -2.88883 0
-0.467204 -1.79036 0
0.351749 -0.658665 0
-0.125724 -0.97898 0
0.00747222 -0.175247 0
-0.0170346 -0.408769 0
-0.100496 -2.36958 0
0.029313 -1.64057 0
0.247785 -0.49696 0
0.266314 -1.16926 0
-0.156233 -0.57953 0
-0.129117 -1.06826 0
0.0538165 -0.326058 0
0.448726 -2.2606 0
0.781853 -1.33125 0
0.159604 -1.22742 0
0.00683041 -0.263131 0
-0.0871388 -1.12169 0
0.138856 -0.687987 0
0.0557926 -0.916779 0
-0.617598 -2.88815 0
-0.0836687 -0.630645 0
-0.407034 -2.06169 0
-0.34109 -0.568246 0
-0.386239 -1.67431 0
-0.504638 -0.191837 0
-0.0715732 -0.118294 0
-0.268206 -0.599402 0
-0.0561014 -2.00914 0
-0.0862354 -0.787907 0
-0.060958 -0.286776 0
-0.185254 -0.320334 0
-0.136533 -0.828374 0
-0.10076 -1.06497 0
-0.212187 -0.236707 0
-0.256715 -0.476125 0
-0.130383 -0.317589 0
-0.364381 -0.398498 0
0.0748516 -0.197711 0
-0.19724 -0.23366 0
0.342171 -0.465347 0
-0.0714847 -1.10418 0
0.0282881 -0.499289 0
-0.229954 -1.18599 0
0.0509929 -0.979238 0
-0.127866 -0.142656 0
0.403725 -1.63856 0
0.21083 -0.862254 0
-0.106177 -0.360103 0
-0.261921 -0.405632 0
-0.782721 -0.797394 0
-0.3137 -1.13334 0
0.363226 -1.89472 0
0.164816 -1.40262 0
0.0175271 -0.382503 0
0.476765 -1.14852 0
