# vtk DataFile Version 2.0
Unstructured Grid by M++
ASCII
DATASET UNSTRUCTURED_GRID
POINTS 81 float
  1.000000   0.625000 0
  0.750000   0.375000 0
  1.000000   0.000000 0
  0.875000   0.875000 0
  0.750000   0.125000 0
  1.000000   1.000000 0
  0.875000   0.250000 0
  0.625000   0.875000 0
  1.000000   0.750000 0
  0.875000   0.000000 0
  1.000000   0.250000 0
  0.625000   0.375000 0
  0.875000   0.500000 0
  0.625000   0.625000 0
  1.000000   0.500000 0
  0.750000   0.500000 0
  0.750000   1.000000 0
  1.000000   0.125000 0
  0.625000   0.250000 0
  0.750000   0.750000 0
  0.625000   0.000000 0
  0.125000   0.375000 0
  0.000000   0.500000 0
  0.125000   0.625000 0
  0.625000   1.000000 0
  1.000000   0.875000 0
  0.875000   0.125000 0
  0.500000   0.250000 0
  0.625000   0.500000 0
  0.250000   0.625000 0
  0.000000   0.625000 0
  0.375000   0.500000 0
  0.375000   0.000000 0
  0.000000   0.125000 0
  0.125000   0.875000 0
  0.875000   1.000000 0
  0.750000   0.250000 0
  0.375000   0.375000 0
  0.250000   0.375000 0
  0.625000   0.750000 0
  0.125000   0.125000 0
  0.500000   0.000000 0
  0.250000   0.875000 0
  0.125000   0.500000 0
  0.500000   0.375000 0
  0.125000   0.000000 0
  0.250000   0.750000 0
  0.250000   0.500000 0
  0.000000   0.875000 0
  0.875000   0.625000 0
  0.500000   0.750000 0
  0.750000   0.625000 0
  0.250000   0.000000 0
  0.375000   0.750000 0
  0.750000   0.875000 0
  0.625000   0.125000 0
  0.250000   0.250000 0
  0.375000   1.000000 0
  0.375000   0.250000 0
  0.000000   0.375000 0
  0.500000   1.000000 0
  0.875000   0.750000 0
  0.750000   0.000000 0
  0.375000   0.125000 0
  0.500000   0.875000 0
  0.000000   0.000000 0
  0.125000   0.750000 0
  0.500000   0.625000 0
  0.125000   0.250000 0
  0.500000   0.125000 0
  0.250000   1.000000 0
  0.250000   0.125000 0
  0.000000   1.000000 0
  0.375000   0.875000 0
  0.000000   0.750000 0
  0.375000   0.625000 0
  0.000000   0.250000 0
  0.125000   1.000000 0
  1.000000   0.375000 0
  0.500000   0.500000 0
  0.875000   0.375000 0
CELLS 64 320
4 56 71 58 63
4 27 58 69 63
4 41 69 32 63
4 76 33 68 40
4 27 44 58 37
4 79 31 44 37
4 56 38 68 21
4 56 58 38 37
4 52 32 71 63
4 47 38 31 37
4 76 68 59 21
4 22 59 43 21
4 65 45 33 40
4 47 43 38 21
4 52 71 45 40
4 56 68 71 40
4 74 30 66 23
4 46 66 29 23
4 22 43 30 23
4 72 48 77 34
4 46 53 42 73
4 50 64 53 73
4 70 42 57 73
4 74 66 48 34
4 46 42 66 34
4 47 29 43 23
4 70 77 42 34
4 60 57 64 73
4 79 67 31 75
4 47 31 29 75
4 50 53 67 75
4 46 29 53 75
4 10 78 6 80
4 36 6 1 80
4 15 1 12 80
4 36 4 6 26
4 14 12 78 80
4 2 17 9 26
4 36 18 4 55
4 15 28 1 11
4 62 4 20 55
4 10 6 17 26
4 27 18 44 11
4 62 9 4 26
4 27 69 18 55
4 36 1 18 11
4 41 20 69 55
4 79 44 28 11
4 16 24 54 7
4 19 54 39 7
4 50 39 64 7
4 8 25 61 3
4 60 64 24 7
4 79 28 67 13
4 19 51 61 49
4 8 61 0 49
4 15 51 28 13
4 19 39 51 13
4 50 67 39 13
4 19 61 54 3
4 14 0 12 49
4 5 35 25 3
4 15 12 51 49
4 16 54 35 3
CELL_TYPES 64
8
8
8
8
8
8
8
8
8
8
8
8
8
8
8
8
8
8
8
8
8
8
8
8
8
8
8
8
8
8
8
8
8
8
8
8
8
8
8
8
8
8
8
8
8
8
8
8
8
8
8
8
8
8
8
8
8
8
8
8
8
8
8
8
CELL_DATA 64
VECTORS vector_value float
0.0162351 -0.100749 0
-0.0477731 -0.434639 0
-0.0524521 -0.556747 0
-0.00136297 -2.38187 0
-0.0645053 -0.21871 0
-0.0156662 -0.0963124 0
0.112588 -0.896158 0
0.0200368 -0.111415 0
0.0397981 -0.169075 0
-0.154451 -0.232648 0
0.0969369 -2.52782 0
0.10249 -2.73632 0
-0.106687 -2.5824 0
-0.107769 -0.586346 0
-0.0633289 -0.741191 0
0.00523526 -1.01489 0
-0.673292 -1.87178 0
-0.622998 -0.867048 0
-0.260034 -2.72649 0
0.266428 -0.634117 0
-0.168129 -1.09594 0
0.164854 -1.62736 0
-0.223015 -1.50587 0
-0.23346 -0.508931 0
-0.946265 -1.79324 0
-0.144798 -0.280812 0
0.303788 -1.16372 0
-0.668383 -1.37739 0
-0.0388612 -0.534111 0
-0.244712 -0.27285 0
0.443007 -1.28258 0
-0.187257 -0.370658 0
-0.078395 -1.32112 0
-0.0048067 -0.303461 0
-0.244097 -0.713965 0
-0.0619204 -1.14079 0
0.0224832 -1.26916 0
-0.106448 -0.500649 0
0.450255 -1.57049 0
-0.616995 -1.61886 0
0.0290739 -1.74124 0
-0.254472 -0.878732 0
0.0323675 -1.28581 0
-0.168286 -1.53672 0
0.0852597 -0.477834 0
0.131373 -1.3355 0
0.0185932 -0.171978 0
-0.262997 -0.746388 0
-0.108315 -0.705482 0
0.0681581 -0.117002 0
-0.0903407 -0.477381 0
-0.000741858 -1.62385 0
-0.638598 -0.593281 0
0.351032 -0.70447 0
-0.0421797 -0.884204 0
-0.0337586 -1.57566 0
0.171385 -1.1023 0
0.287903 -0.327698 0
0.87238 -0.820377 0
0.204207 -0.7563 0
-0.122356 -1.48057 0
0.306271 -1.50807 0
-0.271107 -0.898389 0
0.329153 -0.512069 0
