# vtk DataFile Version 2.0
Unstructured Grid by M++
ASCII
DATASET UNSTRUCTURED_GRID
POINTS 81 float
  1.000000   0.625000 0
  0.750000   0.375000 0
  1.000000   0.000000 0
  0.875000   0.875000 0
  0.750000   0.125000 0
  1.000000   1.000000 0
  0.875000   0.250000 0
  0.625000   0.875000 0
  1.000000   0.750000 0
  0.875000   0.000000 0
  1.000000   0.250000 0
  0.625000   0.375000 0
  0.875000   0.500000 0
  0.625000   0.625000 0
  1.000000   0.500000 0
  0.750000   0.500000 0
  0.750000   1.000000 0
  1.000000   0.125000 0
  0.625000   0.250000 0
  0.750000   0.750000 0
  0.625000   0.000000 0
  0.125000   0.375000 0
  0.000000   0.500000 0
  0.125000   0.625000 0
  0.625000   1.000000 0
  1.000000   0.875000 0
  0.875000   0.125000 0
  0.500000   0.250000 0
  0.625000   0.500000 0
  0.250000   0.625000 0
  0.000000   0.625000 0
  0.375000   0.500000 0
  0.375000   0.000000 0
  0.000000   0.125000 0
  0.125000   0.875000 0
  0.875000   1.000000 0
  0.750000   0.250000 0
  0.375000   0.375000 0
  0.250000   0.375000 0
  0.625000   0.750000 0
  0.125000   0.125000 0
  0.500000   0.000000 0
  0.250000   0.875000 0
  0.125000   0.500000 0
  0.500000   0.375000 0
  0.125000   0.000000 0
  0.250000   0.750000 0
  0.250000   0.500000 0
  0.000000   0.875000 0
  0.875000   0.625000 0
  0.500000   0.750000 0
  0.750000   0.625000 0
  0.250000   0.000000 0
  0.375000   0.750000 0
  0.750000   0.875000 0
  0.625000   0.125000 0
  0.250000   0.250000 0
  0.375000   1.000000 0
  0.375000   0.250000 0
  0.000000   0.375000 0
  0.500000   1.000000 0
  0.875000   0.750000 0
  0.750000   0.000000 0
  0.375000   0.125000 0
  0.500000   0.875000 0
  0.000000   0.000000 0
  0.125000   0.750000 0
  0.500000   0.625000 0
  0.125000   0.250000 0
  0.500000   0.125000 0
  0.250000   1.000000 0
  0.250000   0.125000 0
  0.000000   1.000000 0
  0.375000   0.875000 0
  0.000000   0.750000 0
  0.375000   0.625000 0
  0.000000   0.250000 0
  0.125000   1.000000 0
  1.000000   0.375000 0
  0.500000   0.500000 0
  0.875000   0.375000 0
CELLS 64 320
4 56 71 58 63
4 27 58 69 63
4 41 69 32 63
4 76 33 68 40
4 27 44 58 37
4 79 31 44 37
4 56 38 68 21
4 56 58 38 37
4 52 32 71 63
4 47 38 31 37
4 76 68 59 21
4 22 59 43 21
4 65 45 33 40
4 47 43 38 21
4 52 71 45 40
4 56 68 71 40
4 74 30 66 23
4 46 66 29 23
4 22 43 30 23
4 72 48 77 34
4 46 53 42 73
4 50 64 53 73
4 70 42 57 73
4 74 66 48 34
4 46 42 66 34
4 47 29 43 23
4 70 77 42 34
4 60 57 64 73
4 79 67 31 75
4 47 31 29 75
4 50 53 67 75
4 46 29 53 75
4 10 78 6 80
4 36 6 1 80
4 15 1 12 80
4 36 4 6 26
4 14 12 78 80
4 2 17 9 26
4 36 18 4 55
4 15 28 1 11
4 62 4 20 55
4 10 6 17 26
4 27 18 44 11
4 62 9 4 26
4 27 69 18 55
4 36 1 18 11
4 41 20 69 55
4 79 44 28 11
4 16 24 54 7
4 19 54 39 7
4 50 39 64 7
4 8 25 61 3
4 60 64 24 7
4 79 28 67 13
4 19 51 61 49
4 8 61 0 49
4 15 51 28 13
4 19 39 51 13
4 50 67 39 13
4 19 61 54 3
4 14 0 12 49
4 5 35 25 3
4 15 12 51 49
4 16 54 35 3
CELL_TYPES 64
8
8
8
8
8
8
8
8
8
8
8
8
8
8
8
8
8
8
8
8
8
8
8
8
8
8
8
8
8
8
8
8
8
8
8
8
8
8
8
8
8
8
8
8
8
8
8
8
8
8
8
8
8
8
8
8
8
8
8
8
8
8
8
8
CELL_DATA 64
VECTORS vector_value float
-0.0569812 -0.217716 0
-0.198892 -0.725572 0
-0.0802636 -0.449162 0
0.0101261 -0.137198 0
2.03631 -2.6495 0
1.47475 -2.90542 0
0.0174896 -0.0232577 0
0.21949 -0.302115 0
-0.260965 -0.589248 0
1.82838 -1.46733 0
0.0194825 -0.162698 0
0.0593587 -0.253849 0
0.00978906 -0.115421 0
0.426311 -0.224549 0
-0.034518 -0.160636 0
0.00368431 -0.0576554 0
-0.160753 -0.708283 0
0.487229 -2.43043 0
0.242622 -0.741849 0
0.193583 -0.731493 0
-0.482714 -1.01934 0
-0.322026 -1.09954 0
-0.482617 -1.46507 0
0.0697123 -0.480393 0
-0.437176 -2.28088 0
0.667132 -0.690417 0
0.168354 -1.1612 0
-0.595002 -0.727936 0
0.0734721 -0.44191 0
1.09262 -2.70437 0
0.00838843 -0.78138 0
0.028616 -0.912798 0
-0.336848 -1.13015 0
-0.344708 -0.505158 0
-0.177122 -0.304763 0
-0.347264 -1.01446 0
-0.168381 -1.56787 0
0.0175326 -0.593 0
0.233377 -0.965287 0
0.0855668 -0.445483 0
0.0711658 -2.15692 0
-0.0354143 -0.512532 0
1.2567 -2.54103 0
-0.0119409 -0.584375 0
0.935887 -4.36958 0
-0.125431 -0.686085 0
0.0219898 -3.35124 0
0.0323904 -0.830742 0
-0.842322 -0.827422 0
0.124619 -0.627419 0
-0.102066 -1.1471 0
0.115289 -0.864268 0
-0.875672 -1.4535 0
0.197827 -1.36042 0
0.482673 -0.556333 0
0.211203 -1.23123 0
0.1518 -0.180505 0
0.0689188 -0.0856628 0
0.0465254 -1.29388 0
0.0384292 -0.481074 0
0.158065 -1.61377 0
-0.162023 -0.594045 0
0.148714 -0.26676 0
-0.405583 -1.03933 0
