# vtk DataFile Version 2.0
Unstructured Grid by M++
ASCII
DATASET UNSTRUCTURED_GRID
POINTS 81 float
  1.000000   0.625000 0
  0.750000   0.375000 0
  1.000000   0.000000 0
  0.875000   0.875000 0
  0.750000   0.125000 0
  1.000000   1.000000 0
  0.875000   0.250000 0
  0.625000   0.875000 0
  1.000000   0.750000 0
  0.875000   0.000000 0
  1.000000   0.250000 0
  0.625000   0.375000 0
  0.875000   0.500000 0
  0.625000   0.625000 0
  1.000000   0.500000 0
  0.750000   0.500000 0
  0.750000   1.000000 0
  1.000000   0.125000 0
  0.625000   0.250000 0
  0.750000   0.750000 0
  0.625000   0.000000 0
  0.125000   0.375000 0
  0.000000   0.500000 0
  0.125000   0.625000 0
  0.625000   1.000000 0
  1.000000   0.875000 0
  0.875000   0.125000 0
  0.500000   0.250000 0
  0.625000   0.500000 0
  0.250000   0.625000 0
  0.000000   0.625000 0
  0.375000   0.500000 0
  0.375000   0.000000 0
  0.000000   0.125000 0
  0.125000   0.875000 0
  0.875000   1.000000 0
  0.750000   0.250000 0
  0.375000   0.375000 0
  0.250000   0.375000 0
  0.625000   0.750000 0
  0.125000   0.125000 0
  0.500000   0.000000 0
  0.250000   0.875000 0
  0.125000   0.500000 0
  0.500000   0.375000 0
  0.125000   0.000000 0
  0.250000   0.750000 0
  0.250000   0.500000 0
  0.000000   0.875000 0
  0.875000   0.625000 0
  0.500000   0.750000 0
  0.750000   0.625000 0
  0.250000   0.000000 0
  0.375000   0.750000 0
  0.750000   0.875000 0
  0.625000   0.125000 0
  0.250000   0.250000 0
  0.375000   1.000000 0
  0.375000   0.250000 0
  0.000000   0.375000 0
  0.500000   1.000000 0
  0.875000   0.750000 0
  0.750000   0.000000 0
  0.375000   0.125000 0
  0.500000   0.875000 0
  0.000000   0.000000 0
  0.125000   0.750000 0
  0.500000   0.625000 0
  0.125000   0.250000 0
  0.500000   0.125000 0
  0.250000   1.000000 0
  0.250000   0.125000 0
  0.000000   1.000000 0
  0.375000   0.875000 0
  0.000000   0.750000 0
  0.375000   0.625000 0
  0.000000   0.250000 0
  0.125000   1.000000 0
  1.000000   0.375000 0
  0.500000   0.500000 0
  0.875000   0.375000 0
CELLS 64 320
4 56 71 58 63
4 27 58 69 63
4 41 69 32 63
4 76 33 68 40
4 27 44 58 37
4 79 31 44 37
4 56 38 68 21
4 56 58 38 37
4 52 32 71 63
4 47 38 31 37
4 76 68 59 21
4 22 59 43 21
4 65 45 33 40
4 47 43 38 21
4 52 71 45 40
4 56 68 71 40
4 74 30 66 23
4 46 66 29 23
4 22 43 30 23
4 72 48 77 34
4 46 53 42 73
4 50 64 53 73
4 70 42 57 73
4 74 66 48 34
4 46 42 66 34
4 47 29 43 23
4 70 77 42 34
4 60 57 64 73
4 79 67 31 75
4 47 31 29 75
4 50 53 67 75
4 46 29 53 75
4 10 78 6 80
4 36 6 1 80
4 15 1 12 80
4 36 4 6 26
4 14 12 78 80
4 2 17 9 26
4 36 18 4 55
4 15 28 1 11
4 62 4 20 55
4 10 6 17 26
4 27 18 44 11
4 62 9 4 26
4 27 69 18 55
4 36 1 18 11
4 41 20 69 55
4 79 44 28 11
4 16 24 54 7
4 19 54 39 7
4 50 39 64 7
4 8 25 61 3
4 60 64 24 7
4 79 28 67 13
4 19 51 61 49
4 8 61 0 49
4 15 51 28 13
4 19 39 51 13
4 50 67 39 13
4 19 61 54 3
4 14 0 12 49
4 5 35 25 3
4 15 12 51 49
4 16 54 35 3
CELL_TYPES 64
8
8
8
8
8
8
8
8
8
8
8
8
8
8
8
8
8
8
8
8
8
8
8
8
8
8
8
8
8
8
8
8
8
8
8
8
8
8
8
8
8
8
8
8
8
8
8
8
8
8
8
8
8
8
8
8
8
8
8
8
8
8
8
8
CELL_DATA 64
VECTORS vector_value float
-0.471239 -2.01092 0
-1.15704 -1.22976 0
-0.0606587 -0.477001 0
0.0397727 -0.257313 0
-0.479918 -0.898365 0
-0.357625 -1.37185 0
-0.290513 -2.09837 0
-0.842774 -1.23641 0
0.0632097 -3.33119 0
-0.256672 -1.25992 0
0.222749 -0.539729 0
-0.288297 -0.848099 0
-0.26843 -0.777261 0
-0.295703 -0.876072 0
0.0127561 -1.37959 0
0.156001 -2.58255 0
-0.0117728 -0.126464 0
0.00391997 -0.644978 0
-0.0536691 -0.206235 0
0.268415 -1.02164 0
-0.286859 -2.48289 0
-0.204913 -0.235557 0
0.399929 -0.773697 0
0.157863 -0.302691 0
0.654952 -0.868064 0
-0.530638 -0.836951 0
0.324295 -0.707293 0
-0.212804 -1.45037 0
0.296561 -0.890197 0
-0.0872997 -2.36635 0
-0.0602545 -0.567625 0
0.169795 -2.98743 0
0.0582396 -0.479615 0
0.102367 -0.779018 0
-0.249495 -1.36122 0
0.0136224 -0.782987 0
0.0429282 -0.357097 0
-0.0853986 -0.186507 0
-0.0135614 -0.182387 0
-0.64595 -1.06283 0
-0.230464 -0.434823 0
-0.116923 -0.622071 0
-1.03424 -1.26184 0
-0.415375 -0.895065 0
-0.182759 -0.33201 0
-0.260375 -0.706656 0
0.0619816 -0.518562 0
-0.388064 -0.862904 0
-0.708542 -1.34996 0
0.206092 -1.46023 0
-0.129414 -1.58848 0
-0.107039 -0.880244 0
-0.158505 -1.32908 0
0.0153217 -0.635336 0
0.0203126 -0.639239 0
-0.0349405 -0.670349 0
0.244179 -1.20951 0
0.169196 -1.46547 0
0.101689 -0.898445 0
-0.00739104 -0.181847 0
-0.134315 -0.441962 0
-0.0435312 -0.923893 0
0.112251 -1.41347 0
-0.51148 -0.444068 0
