# vtk DataFile Version 2.0
Unstructured Grid by M++
ASCII
DATASET UNSTRUCTURED_GRID
POINTS 81 float
  1.000000   0.625000 0
  0.750000   0.375000 0
  1.000000   0.000000 0
  0.875000   0.875000 0
  0.750000   0.125000 0
  1.000000   1.000000 0
  0.875000   0.250000 0
  0.625000   0.875000 0
  1.000000   0.750000 0
  0.875000   0.000000 0
  1.000000   0.250000 0
  0.625000   0.375000 0
  0.875000   0.500000 0
  0.625000   0.625000 0
  1.000000   0.500000 0
  0.750000   0.500000 0
  0.750000   1.000000 0
  1.000000   0.125000 0
  0.625000   0.250000 0
  0.750000   0.750000 0
  0.625000   0.000000 0
  0.125000   0.375000 0
  0.000000   0.500000 0
  0.125000   0.625000 0
  0.625000   1.000000 0
  1.000000   0.875000 0
  0.875000   0.125000 0
  0.500000   0.250000 0
  0.625000   0.500000 0
  0.250000   0.625000 0
  0.000000   0.625000 0
  0.375000   0.500000 0
  0.375000   0.000000 0
  0.000000   0.125000 0
  0.125000   0.875000 0
  0.875000   1.000000 0
  0.750000   0.250000 0
  0.375000   0.375000 0
  0.250000   0.375000 0
  0.625000   0.750000 0
  0.125000   0.125000 0
  0.500000   0.000000 0
  0.250000   0.875000 0
  0.125000   0.500000 0
  0.500000   0.375000 0
  0.125000   0.000000 0
  0.250000   0.750000 0
  0.250000   0.500000 0
  0.000000   0.875000 0
  0.875000   0.625000 0
  0.500000   0.750000 0
  0.750000   0.625000 0
  0.250000   0.000000 0
  0.375000   0.750000 0
  0.750000   0.875000 0
  0.625000   0.125000 0
  0.250000   0.250000 0
  0.375000   1.000000 0
  0.375000   0.250000 0
  0.000000   0.375000 0
  0.500000   1.000000 0
  0.875000   0.750000 0
  0.750000   0.000000 0
  0.375000   0.125000 0
  0.500000   0.875000 0
  0.000000   0.000000 0
  0.125000   0.750000 0
  0.500000   0.625000 0
  0.125000   0.250000 0
  0.500000   0.125000 0
  0.250000   1.000000 0
  0.250000   0.125000 0
  0.000000   1.000000 0
  0.375000   0.875000 0
  0.000000   0.750000 0
  0.375000   0.625000 0
  0.000000   0.250000 0
  0.125000   1.000000 0
  1.000000   0.375000 0
  0.500000   0.500000 0
  0.875000   0.375000 0
CELLS 64 320
4 56 71 58 63
4 27 58 69 63
4 41 69 32 63
4 76 33 68 40
4 27 44 58 37
4 79 31 44 37
4 56 38 68 21
4 56 58 38 37
4 52 32 71 63
4 47 38 31 37
4 76 68 59 21
4 22 59 43 21
4 65 45 33 40
4 47 43 38 21
4 52 71 45 40
4 56 68 71 40
4 74 30 66 23
4 46 66 29 23
4 22 43 30 23
4 72 48 77 34
4 46 53 42 73
4 50 64 53 73
4 70 42 57 73
4 74 66 48 34
4 46 42 66 34
4 47 29 43 23
4 70 77 42 34
4 60 57 64 73
4 79 67 31 75
4 47 31 29 75
4 50 53 67 75
4 46 29 53 75
4 10 78 6 80
4 36 6 1 80
4 15 1 12 80
4 36 4 6 26
4 14 12 78 80
4 2 17 9 26
4 36 18 4 55
4 15 28 1 11
4 62 4 20 55
4 10 6 17 26
4 27 18 44 11
4 62 9 4 26
4 27 69 18 55
4 36 1 18 11
4 41 20 69 55
4 79 44 28 11
4 16 24 54 7
4 19 54 39 7
4 50 39 64 7
4 8 25 61 3
4 60 64 24 7
4 79 28 67 13
4 19 51 61 49
4 8 61 0 49
4 15 51 28 13
4 19 39 51 13
4 50 67 39 13
4 19 61 54 3
4 14 0 12 49
4 5 35 25 3
4 15 12 51 49
4 16 54 35 3
CELL_TYPES 64
8
8
8
8
8
8
8
8
8
8
8
8
8
8
8
8
8
8
8
8
8
8
8
8
8
8
8
8
8
8
8
8
8
8
8
8
8
8
8
8
8
8
8
8
8
8
8
8
8
8
8
8
8
8
8
8
8
8
8
8
8
8
8
8
CELL_DATA 64
VECTORS vector_value float
0.00471776 -0.82009 0
2.01185 -2.01709 0
0.0646687 -0.534705 0
-0.103321 -0.318106 0
1.52181 -2.96839 0
0.418389 -2.04883 0
-0.181916 -0.478475 0
0.777278 -2.83292 0
-0.00250606 -0.074151 0
0.667686 -4.10803 0
-0.0627681 -0.140913 0
-0.0198316 -0.0539383 0
-0.0524062 -0.50395 0
0.0763828 -0.579672 0
-0.13866 -0.953849 0
-0.338924 -0.703602 0
0.0261725 -0.109319 0
0.18788 -1.86979 0
0.0137225 -0.0459882 0
0.159441 -0.943897 0
0.121001 -2.31203 0
-0.163767 -0.210268 0
-1.40876 -1.21485 0
0.278281 -0.547885 0
0.777243 -2.42485 0
0.530673 -1.34664 0
-0.416664 -1.95404 0
-1.76795 -0.673171 0
-0.264714 -1.56014 0
0.515816 -3.55413 0
-0.1088 -0.66174 0
0.32948 -3.1908 0
-0.00918471 -0.223855 0
-0.0765846 -0.532382 0
-0.0631194 -0.582309 0
0.0302065 -0.401887 0
-0.0277121 -0.280162 0
-0.00887019 -0.246821 0
0.720414 -1.24944 0
-0.0203206 -0.118457 0
0.916174 -2.9737 0
0.0128507 -0.262416 0
0.391319 -0.427909 0
0.15593 -0.760051 0
2.99984 -2.22736 0
0.0892205 -0.395162 0
0.482669 -1.95277 0
0.0402871 -0.228603 0
-0.13894 -0.507056 0
-0.408873 -0.465736 0
-0.13877 -0.084243 0
-0.14321 -0.777762 0
-0.974665 -0.46979 0
-0.52653 -0.396518 0
-0.414325 -0.807227 0
-0.0687055 -0.496403 0
-0.128857 -0.183837 0
-0.882402 -0.55994 0
-0.736747 -0.304785 0
-0.403158 -1.17723 0
-0.073946 -0.427928 0
-0.0592904 -1.05162 0
-0.0993165 -0.484819 0
0.023202 -1.18558 0
