# vtk DataFile Version 2.0
Unstructured Grid by M++
ASCII
DATASET UNSTRUCTURED_GRID
POINTS 81 float
  1.000000   0.625000 0
  0.750000   0.375000 0
  1.000000   0.000000 0
  0.875000   0.875000 0
  0.750000   0.125000 0
  1.000000   1.000000 0
  0.875000   0.250000 0
  0.625000   0.875000 0
  1.000000   0.750000 0
  0.875000   0.000000 0
  1.000000   0.250000 0
  0.625000   0.375000 0
  0.875000   0.500000 0
  0.625000   0.625000 0
  1.000000   0.500000 0
  0.750000   0.500000 0
  0.750000   1.000000 0
  1.000000   0.125000 0
  0.625000   0.250000 0
  0.750000   0.750000 0
  0.625000   0.000000 0
  0.125000   0.375000 0
  0.000000   0.500000 0
  0.125000   0.625000 0
  0.625000   1.000000 0
  1.000000   0.875000 0
  0.875000   0.125000 0
  0.500000   0.250000 0
  0.625000   0.500000 0
  0.250000   0.625000 0
  0.000000   0.625000 0
  0.375000   0.500000 0
  0.375000   0.000000 0
  0.000000   0.125000 0
  0.125000   0.875000 0
  0.875000   1.000000 0
  0.750000   0.250000 0
  0.375000   0.375000 0
  0.250000   0.375000 0
  0.625000   0.750000 0
  0.125000   0.125000 0
  0.500000   0.000000 0
  0.250000   0.875000 0
  0.125000   0.500000 0
  0.500000   0.375000 0
  0.125000   0.000000 0
  0.250000   0.750000 0
  0.250000   0.500000 0
  0.000000   0.875000 0
  0.875000   0.625000 0
  0.500000   0.750000 0
  0.750000   0.625000 0
  0.250000   0.000000 0
  0.375000   0.750000 0
  0.750000   0.875000 0
  0.625000   0.125000 0
  0.250000   0.250000 0
  0.375000   1.000000 0
  0.375000   0.250000 0
  0.000000   0.375000 0
  0.500000   1.000000 0
  0.875000   0.750000 0
  0.750000   0.000000 0
  0.375000   0.125000 0
  0.500000   0.875000 0
  0.000000   0.000000 0
  0.125000   0.750000 0
  0.500000   0.625000 0
  0.125000   0.250000 0
  0.500000   0.125000 0
  0.250000   1.000000 0
  0.250000   0.125000 0
  0.000000   1.000000 0
  0.375000   0.875000 0
  0.000000   0.750000 0
  0.375000   0.625000 0
  0.000000   0.250000 0
  0.125000   1.000000 0
  1.000000   0.375000 0
  0.500000   0.500000 0
  0.875000   0.375000 0
CELLS 64 320
4 56 71 58 63
4 27 58 69 63
4 41 69 32 63
4 76 33 68 40
4 27 44 58 37
4 79 31 44 37
4 56 38 68 21
4 56 58 38 37
4 52 32 71 63
4 47 38 31 37
4 76 68 59 21
4 22 59 43 21
4 65 45 33 40
4 47 43 38 21
4 52 71 45 40
4 56 68 71 40
4 74 30 66 23
4 46 66 29 23
4 22 43 30 23
4 72 48 77 34
4 46 53 42 73
4 50 64 53 73
4 70 42 57 73
4 74 66 48 34
4 46 42 66 34
4 47 29 43 23
4 70 77 42 34
4 60 57 64 73
4 79 67 31 75
4 47 31 29 75
4 50 53 67 75
4 46 29 53 75
4 10 78 6 80
4 36 6 1 80
4 15 1 12 80
4 36 4 6 26
4 14 12 78 80
4 2 17 9 26
4 36 18 4 55
4 15 28 1 11
4 62 4 20 55
4 10 6 17 26
4 27 18 44 11
4 62 9 4 26
4 27 69 18 55
4 36 1 18 11
4 41 20 69 55
4 79 44 28 11
4 16 24 54 7
4 19 54 39 7
4 50 39 64 7
4 8 25 61 3
4 60 64 24 7
4 79 28 67 13
4 19 51 61 49
4 8 61 0 49
4 15 51 28 13
4 19 39 51 13
4 50 67 39 13
4 19 61 54 3
4 14 0 12 49
4 5 35 25 3
4 15 12 51 49
4 16 54 35 3
CELL_TYPES 64
8
8
8
8
8
8
8
8
8
8
8
8
8
8
8
8
8
8
8
8
8
8
8
8
8
8
8
8
8
8
8
8
8
8
8
8
8
8
8
8
8
8
8
8
8
8
8
8
8
8
8
8
8
8
8
8
8
8
8
8
8
8
8
8
CELL_DATA 64
VECTORS vector_value float
-1.35362 -2.40775 0
-0.0667446 -0.0837902 0
-0.00400143 -0.0447363 0
-0.0310496 -0.231147 0
-1.60212 -1.15708 0
-2.92433 -4.34458 0
-0.844355 -1.4026 0
-3.67203 -3.78704 0
-0.0902906 -0.90495 0
-0.468852 -0.801314 0
0.0755602 -0.308751 0
-0.0143968 -0.448188 0
-0.0366215 -0.362715 0
-0.131253 -0.302103 0
-0.270017 -5.65031 0
-1.47749 -4.23081 0
0.00679518 -0.532448 0
0.0056905 -0.10428 0
0.0757398 -0.385302 0
0.254594 -1.07143 0
0.150868 -0.0405111 0
0.266299 -0.271225 0
1.56121 -0.319251 0
-0.0180823 -0.493429 0
0.227408 -0.34823 0
0.0724385 -0.264612 0
0.684705 -0.448719 0
2.31477 -0.728526 0
-1.35393 -2.07306 0
-0.160879 -0.42023 0
-0.0709639 -0.162056 0
0.0530411 -0.205031 0
0.0252314 -0.440663 0
0.00601941 -0.543683 0
-0.0103507 -0.657286 0
0.157961 -0.496103 0
0.00588756 -0.381982 0
0.0382868 -0.743234 0
0.000488284 -0.0107767 0
-0.0671224 -0.24952 0
-9.31394e-05 -0.0037607 0
0.11373 -0.530172 0
-0.435076 -0.243333 0
0.0144892 -0.2859 0
-0.0125833 -0.00944961 0
-0.0816706 -0.11685 0
-0.000974642 -0.00439147 0
-0.927032 -0.815031 0
-1.56345 -1.63382 0
0.0004928 -0.885859 0
0.266354 -5.50402 0
-0.0043576 -0.198622 0
0.605345 -2.6398 0
-1.05421 -3.41681 0
0.0692405 -0.162093 0
0.00492058 -0.200993 0
0.0157284 -0.517917 0
0.226622 -1.30276 0
-0.906894 -5.33034 0
-0.0722289 -0.258099 0
0.0904144 -0.403548 0
-0.396115 -0.605571 0
0.373843 -0.518516 0
-1.15037 -0.552882 0
