# vtk DataFile Version 2.0
Unstructured Grid by M++
ASCII
DATASET UNSTRUCTURED_GRID
POINTS 81 float
  1.000000   0.625000 0
  0.750000   0.375000 0
  1.000000   0.000000 0
  0.875000   0.875000 0
  0.750000   0.125000 0
  1.000000   1.000000 0
  0.875000   0.250000 0
  0.625000   0.875000 0
  1.000000   0.750000 0
  0.875000   0.000000 0
  1.000000   0.250000 0
  0.625000   0.375000 0
  0.875000   0.500000 0
  0.625000   0.625000 0
  1.000000   0.500000 0
  0.750000   0.500000 0
  0.750000   1.000000 0
  1.000000   0.125000 0
  0.625000   0.250000 0
  0.750000   0.750000 0
  0.625000   0.000000 0
  0.125000   0.375000 0
  0.000000   0.500000 0
  0.125000   0.625000 0
  0.625000   1.000000 0
  1.000000   0.875000 0
  0.875000   0.125000 0
  0.500000   0.250000 0
  0.625000   0.500000 0
  0.250000   0.625000 0
  0.000000   0.625000 0
  0.375000   0.500000 0
  0.375000   0.000000 0
  0.000000   0.125000 0
  0.125000   0.875000 0
  0.875000   1.000000 0
  0.750000   0.250000 0
  0.375000   0.375000 0
  0.250000   0.375000 0
  0.625000   0.750000 0
  0.125000   0.125000 0
  0.500000   0.000000 0
  0.250000   0.875000 0
  0.125000   0.500000 0
  0.500000   0.375000 0
  0.125000   0.000000 0
  0.250000   0.750000 0
  0.250000   0.500000 0
  0.000000   0.875000 0
  0.875000   0.625000 0
  0.500000   0.750000 0
  0.750000   0.625000 0
  0.250000   0.000000 0
  0.375000   0.750000 0
  0.750000   0.875000 0
  0.625000   0.125000 0
  0.250000   0.250000 0
  0.375000   1.000000 0
  0.375000   0.250000 0
  0.000000   0.375000 0
  0.500000   1.000000 0
  0.875000   0.750000 0
  0.750000   0.000000 0
  0.375000   0.125000 0
  0.500000   0.875000 0
  0.000000   0.000000 0
  0.125000   0.750000 0
  0.500000   0.625000 0
  0.125000   0.250000 0
  0.500000   0.125000 0
  0.250000   1.000000 0
  0.250000   0.125000 0
  0.000000   1.000000 0
  0.375000   0.875000 0
  0.000000   0.750000 0
  0.375000   0.625000 0
  0.000000   0.250000 0
  0.125000   1.000000 0
  1.000000   0.375000 0
  0.500000   0.500000 0
  0.875000   0.375000 0
CELLS 64 320
4 56 71 58 63
4 27 58 69 63
4 41 69 32 63
4 76 33 68 40
4 27 44 58 37
4 79 31 44 37
4 56 38 68 21
4 56 58 38 37
4 52 32 71 63
4 47 38 31 37
4 76 68 59 21
4 22 59 43 21
4 65 45 33 40
4 47 43 38 21
4 52 71 45 40
4 56 68 71 40
4 74 30 66 23
4 46 66 29 23
4 22 43 30 23
4 72 48 77 34
4 46 53 42 73
4 50 64 53 73
4 70 42 57 73
4 74 66 48 34
4 46 42 66 34
4 47 29 43 23
4 70 77 42 34
4 60 57 64 73
4 79 67 31 75
4 47 31 29 75
4 50 53 67 75
4 46 29 53 75
4 10 78 6 80
4 36 6 1 80
4 15 1 12 80
4 36 4 6 26
4 14 12 78 80
4 2 17 9 26
4 36 18 4 55
4 15 28 1 11
4 62 4 20 55
4 10 6 17 26
4 27 18 44 11
4 62 9 4 26
4 27 69 18 55
4 36 1 18 11
4 41 20 69 55
4 79 44 28 11
4 16 24 54 7
4 19 54 39 7
4 50 39 64 7
4 8 25 61 3
4 60 64 24 7
4 79 28 67 13
4 19 51 61 49
4 8 61 0 49
4 15 51 28 13
4 19 39 51 13
4 50 67 39 13
4 19 61 54 3
4 14 0 12 49
4 5 35 25 3
4 15 12 51 49
4 16 54 35 3
CELL_TYPES 64
8
8
8
8
8
8
8
8
8
8
8
8
8
8
8
8
8
8
8
8
8
8
8
8
8
8
8
8
8
8
8
8
8
8
8
8
8
8
8
8
8
8
8
8
8
8
8
8
8
8
8
8
8
8
8
8
8
8
8
8
8
8
8
8
CELL_DATA 64
VECTORS vector_value float
0.138145 -0.861954 0
0.107908 -0.654832 0
0.350102 -0.933466 0
-0.259825 -2.53362 0
-0.00717311 -0.617634 0
-0.945683 -0.856254 0
-1.50325 -2.18549 0
-0.275614 -1.00104 0
0.0780716 -0.221348 0
-1.18285 -1.62123 0
-0.697992 -1.10803 0
-0.00465329 -0.385268 0
0.154152 -2.08754 0
-0.181368 -1.50619 0
0.138239 -1.38968 0
-0.0418532 -0.776487 0
0.0691763 -0.588922 0
0.293285 -1.74654 0
0.0750712 -0.570428 0
-0.144727 -1.53735 0
0.0954006 -0.232612 0
0.617416 -0.951639 0
-0.259744 -0.781872 0
0.29072 -1.18245 0
0.280708 -1.40847 0
0.223336 -1.43582 0
-0.468435 -0.878647 0
-0.110152 -0.898761 0
-0.751445 -0.81693 0
0.183565 -0.56872 0
0.132079 -0.160298 0
0.14815 -0.467082 0
-0.0395438 -0.597423 0
0.135043 -1.23311 0
0.3765 -0.329856 0
-0.296693 -1.10509 0
0.109687 -0.681089 0
0.0321125 -0.651808 0
-0.179204 -0.433462 0
0.656896 -1.23261 0
-0.533763 -0.795703 0
0.0216188 -0.551758 0
-0.0490838 -0.693514 0
-0.0958089 -0.29824 0
-0.090027 -1.08279 0
-0.147285 -0.563761 0
-0.06834 -1.62222 0
-0.226708 -1.38751 0
0.568707 -1.08039 0
-0.290025 -1.72953 0
0.24508 -0.443477 0
-0.215548 -0.545768 0
0.301355 -0.362937 0
-1.19389 -2.64334 0
-0.363148 -0.699517 0
-0.0235222 -0.21349 0
-0.353512 -1.28481 0
-0.962874 -2.38836 0
0.127087 -1.73579 0
-0.694878 -1.50605 0
0.0976307 -0.323937 0
-0.151179 -0.93399 0
0.175197 -0.356021 0
0.0487482 -1.52605 0
