# vtk DataFile Version 2.0
Unstructured Grid by M++
ASCII
DATASET UNSTRUCTURED_GRID
POINTS 81 float
  1.000000   0.625000 0
  0.750000   0.375000 0
  1.000000   0.000000 0
  0.875000   0.875000 0
  0.750000   0.125000 0
  1.000000   1.000000 0
  0.875000   0.250000 0
  0.625000   0.875000 0
  1.000000   0.750000 0
  0.875000   0.000000 0
  1.000000   0.250000 0
  0.625000   0.375000 0
  0.875000   0.500000 0
  0.625000   0.625000 0
  1.000000   0.500000 0
  0.750000   0.500000 0
  0.750000   1.000000 0
  1.000000   0.125000 0
  0.625000   0.250000 0
  0.750000   0.750000 0
  0.625000   0.000000 0
  0.125000   0.375000 0
  0.000000   0.500000 0
  0.125000   0.625000 0
  0.625000   1.000000 0
  1.000000   0.875000 0
  0.875000   0.125000 0
  0.500000   0.250000 0
  0.625000   0.500000 0
  0.250000   0.625000 0
  0.000000   0.625000 0
  0.375000   0.500000 0
  0.375000   0.000000 0
  0.000000   0.125000 0
  0.125000   0.875000 0
  0.875000   1.000000 0
  0.750000   0.250000 0
  0.375000   0.375000 0
  0.250000   0.375000 0
  0.625000   0.750000 0
  0.125000   0.125000 0
  0.500000   0.000000 0
  0.250000   0.875000 0
  0.125000   0.500000 0
  0.500000   0.375000 0
  0.125000   0.000000 0
  0.250000   0.750000 0
  0.250000   0.500000 0
  0.000000   0.875000 0
  0.875000   0.625000 0
  0.500000   0.750000 0
  0.750000   0.625000 0
  0.250000   0.000000 0
  0.375000   0.750000 0
  0.750000   0.875000 0
  0.625000   0.125000 0
  0.250000   0.250000 0
  0.375000   1.000000 0
  0.375000   0.250000 0
  0.000000   0.375000 0
  0.500000   1.000000 0
  0.875000   0.750000 0
  0.750000   0.000000 0
  0.375000   0.125000 0
  0.500000   0.875000 0
  0.000000   0.000000 0
  0.125000   0.750000 0
  0.500000   0.625000 0
  0.125000   0.250000 0
  0.500000   0.125000 0
  0.250000   1.000000 0
  0.250000   0.125000 0
  0.000000   1.000000 0
  0.375000   0.875000 0
  0.000000   0.750000 0
  0.375000   0.625000 0
  0.000000   0.250000 0
  0.125000   1.000000 0
  1.000000   0.375000 0
  0.500000   0.500000 0
  0.875000   0.375000 0
CELLS 64 320
4 56 71 58 63
4 27 58 69 63
4 41 69 32 63
4 76 33 68 40
4 27 44 58 37
4 79 31 44 37
4 56 38 68 21
4 56 58 38 37
4 52 32 71 63
4 47 38 31 37
4 76 68 59 21
4 22 59 43 21
4 65 45 33 40
4 47 43 38 21
4 52 71 45 40
4 56 68 71 40
4 74 30 66 23
4 46 66 29 23
4 22 43 30 23
4 72 48 77 34
4 46 53 42 73
4 50 64 53 73
4 70 42 57 73
4 74 66 48 34
4 46 42 66 34
4 47 29 43 23
4 70 77 42 34
4 60 57 64 73
4 79 67 31 75
4 47 31 29 75
4 50 53 67 75
4 46 29 53 75
4 10 78 6 80
4 36 6 1 80
4 15 1 12 80
4 36 4 6 26
4 14 12 78 80
4 2 17 9 26
4 36 18 4 55
4 15 28 1 11
4 62 4 20 55
4 10 6 17 26
4 27 18 44 11
4 62 9 4 26
4 27 69 18 55
4 36 1 18 11
4 41 20 69 55
4 79 44 28 11
4 16 24 54 7
4 19 54 39 7
4 50 39 64 7
4 8 25 61 3
4 60 64 24 7
4 79 28 67 13
4 19 51 61 49
4 8 61 0 49
4 15 51 28 13
4 19 39 51 13
4 50 67 39 13
4 19 61 54 3
4 14 0 12 49
4 5 35 25 3
4 15 12 51 49
4 16 54 35 3
CELL_TYPES 64
8
8
8
8
8
8
8
8
8
8
8
8
8
8
8
8
8
8
8
8
8
8
8
8
8
8
8
8
8
8
8
8
8
8
8
8
8
8
8
8
8
8
8
8
8
8
8
8
8
8
8
8
8
8
8
8
8
8
8
8
8
8
8
8
CELL_DATA 64
VECTORS vector_value float
-1.26535 -1.59033 0
-1.02414 -1.07238 0
-0.198218 -0.95416 0
-0.101129 -0.325128 0
-1.29864 -1.44627 0
-0.368264 -0.213104 0
0.00517842 -0.098328 0
-0.196075 -0.471721 0
-0.123087 -1.64203 0
-0.0572846 -0.179521 0
0.0184749 -0.252571 0
0.0121615 -0.298985 0
-0.10424 -0.626202 0
0.0201626 -0.0303534 0
-0.14617 -0.576235 0
-0.48755 -0.408039 0
0.0295942 -0.290808 0
0.127852 -0.182671 0
-0.00842438 -0.315856 0
0.221567 -1.03403 0
0.832253 -0.30921 0
1.60427 -0.626517 0
1.08778 -0.77264 0
0.101521 -0.47415 0
0.413882 -0.326234 0
0.0157981 -0.0507714 0
0.612165 -0.474679 0
1.23466 -0.982511 0
0.0234045 -0.0384557 0
0.0277497 -0.0793553 0
0.172351 -0.0999685 0
0.150045 -0.0559405 0
0.25377 -0.687948 0
1.11445 -2.74627 0
0.642436 -0.916066 0
0.823123 -1.73803 0
0.0340642 -0.43535 0
0.207611 -3.06878 0
-0.439285 -0.740491 0
0.883203 -3.57999 0
-0.0303946 -0.258215 0
0.85671 -1.75199 0
-0.663284 -1.22209 0
0.0160226 -0.293355 0
-0.487608 -0.373614 0
0.0586987 -1.07481 0
-0.288215 -0.581024 0
-1.08247 -2.34663 0
0.238628 -1.25625 0
0.142411 -1.72949 0
1.64178 -2.65768 0
-0.129405 -0.985705 0
0.804235 -1.38354 0
-0.176975 -1.98065 0
-0.651836 -1.08705 0
-0.133417 -0.486067 0
-0.607026 -4.77824 0
0.739944 -3.97519 0
0.615366 -1.82231 0
-0.105553 -0.891008 0
-0.0039491 -0.440232 0
-0.0163916 -0.887445 0
-0.0777934 -0.31644 0
-0.0427139 -1.2089 0
