# vtk DataFile Version 2.0
Unstructured Grid by M++
ASCII
DATASET UNSTRUCTURED_GRID
POINTS 81 float
  1.000000   0.625000 0
  0.750000   0.375000 0
  1.000000   0.000000 0
  0.875000   0.875000 0
  0.750000   0.125000 0
  1.000000   1.000000 0
  0.875000   0.250000 0
  0.625000   0.875000 0
  1.000000   0.750000 0
  0.875000   0.000000 0
  1.000000   0.250000 0
  0.625000   0.375000 0
  0.875000   0.500000 0
  0.625000   0.625000 0
  1.000000   0.500000 0
  0.750000   0.500000 0
  0.750000   1.000000 0
  1.000000   0.125000 0
  0.625000   0.250000 0
  0.750000   0.750000 0
  0.625000   0.000000 0
  0.125000   0.375000 0
  0.000000   0.500000 0
  0.125000   0.625000 0
  0.625000   1.000000 0
  1.000000   0.875000 0
  0.875000   0.125000 0
  0.500000   0.250000 0
  0.625000   0.500000 0
  0.250000   0.625000 0
  0.000000   0.625000 0
  0.375000   0.500000 0
  0.375000   0.000000 0
  0.000000   0.125000 0
  0.125000   0.875000 0
  0.875000   1.000000 0
  0.750000   0.250000 0
  0.375000   0.375000 0
  0.250000   0.375000 0
  0.625000   0.750000 0
  0.125000   0.125000 0
  0.500000   0.000000 0
  0.250000   0.875000 0
  0.125000   0.500000 0
  0.500000   0.375000 0
  0.125000   0.000000 0
  0.250000   0.750000 0
  0.250000   0.500000 0
  0.000000   0.875000 0
  0.875000   0.625000 0
  0.500000   0.750000 0
  0.750000   0.625000 0
  0.250000   0.000000 0
  0.375000   0.750000 0
  0.750000   0.875000 0
  0.625000   0.125000 0
  0.250000   0.250000 0
  0.375000   1.000000 0
  0.375000   0.250000 0
  0.000000   0.375000 0
  0.500000   1.000000 0
  0.875000   0.750000 0
  0.750000   0.000000 0
  0.375000   0.125000 0
  0.500000   0.875000 0
  0.000000   0.000000 0
  0.125000   0.750000 0
  0.500000   0.625000 0
  0.125000   0.250000 0
  0.500000   0.125000 0
  0.250000   1.000000 0
  0.250000   0.125000 0
  0.000000   1.000000 0
  0.375000   0.875000 0
  0.000000   0.750000 0
  0.375000   0.625000 0
  0.000000   0.250000 0
  0.125000   1.000000 0
  1.000000   0.375000 0
  0.500000   0.500000 0
  0.875000   0.375000 0
CELLS 64 320
4 56 71 58 63
4 27 58 69 63
4 41 69 32 63
4 76 33 68 40
4 27 44 58 37
4 79 31 44 37
4 56 38 68 21
4 56 58 38 37
4 52 32 71 63
4 47 38 31 37
4 76 68 59 21
4 22 59 43 21
4 65 45 33 40
4 47 43 38 21
4 52 71 45 40
4 56 68 71 40
4 74 30 66 23
4 46 66 29 23
4 22 43 30 23
4 72 48 77 34
4 46 53 42 73
4 50 64 53 73
4 70 42 57 73
4 74 66 48 34
4 46 42 66 34
4 47 29 43 23
4 70 77 42 34
4 60 57 64 73
4 79 67 31 75
4 47 31 29 75
4 50 53 67 75
4 46 29 53 75
4 10 78 6 80
4 36 6 1 80
4 15 1 12 80
4 36 4 6 26
4 14 12 78 80
4 2 17 9 26
4 36 18 4 55
4 15 28 1 11
4 62 4 20 55
4 10 6 17 26
4 27 18 44 11
4 62 9 4 26
4 27 69 18 55
4 36 1 18 11
4 41 20 69 55
4 79 44 28 11
4 16 24 54 7
4 19 54 39 7
4 50 39 64 7
4 8 25 61 3
4 60 64 24 7
4 79 28 67 13
4 19 51 61 49
4 8 61 0 49
4 15 51 28 13
4 19 39 51 13
4 50 67 39 13
4 19 61 54 3
4 14 0 12 49
4 5 35 25 3
4 15 12 51 49
4 16 54 35 3
CELL_TYPES 64
8
8
8
8
8
8
8
8
8
8
8
8
8
8
8
8
8
8
8
8
8
8
8
8
8
8
8
8
8
8
8
8
8
8
8
8
8
8
8
8
8
8
8
8
8
8
8
8
8
8
8
8
8
8
8
8
8
8
8
8
8
8
8
8
CELL_DATA 64
VECTORS vector_value float
-0.227095 -2.9386 0
0.515336 -3.14115 0
0.208328 -3.60679 0
-0.185679 -0.74515 0
-1.2256 -3.39898 0
0.253547 -1.47542 0
-0.330543 -0.263056 0
-0.441167 -2.13073 0
0.0228352 -1.45612 0
0.66735 -3.37692 0
-0.11178 -0.341195 0
-0.0671657 -0.22881 0
-0.366718 -1.47656 0
0.00555476 -0.183086 0
-0.196872 -0.267713 0
-0.766834 -0.436787 0
0.227973 -0.518676 0
0.641024 -1.41274 0
0.0168711 -0.122004 0
0.093375 -0.827791 0
0.0263912 -0.829295 0
-0.260407 -0.7623 0
-0.0821582 -1.38806 0
0.0937226 -1.32686 0
-0.0202093 -0.827976 0
0.546316 -0.901141 0
-0.0216685 -1.06776 0
0.128196 -0.257744 0
-0.194541 -1.04695 0
0.0624008 -3.16664 0
-0.893931 -2.03566 0
0.00290903 -1.21764 0
-0.110585 -0.185763 0
-0.453236 -0.226008 0
-0.515769 -0.131285 0
-0.0193883 -0.105607 0
-0.320618 -0.731535 0
-0.00499514 -0.0408087 0
0.00169646 -0.266537 0
-0.702844 -0.886961 0
0.0286642 -0.389686 0
-0.00984195 -0.0603727 0
-1.59547 -1.25513 0
-0.0174438 -0.0945436 0
0.114312 -0.305799 0
-0.453243 -0.19913 0
0.21084 -0.667774 0
-0.0208393 -0.985984 0
-0.211603 -1.48187 0
-0.758122 -0.956644 0
-1.42449 -1.76971 0
0.116741 -0.280133 0
0.282823 -1.27087 0
-0.0259558 -1.1656 0
0.106847 -0.647858 0
0.102281 -0.688853 0
-0.0274063 -0.26366 0
-0.0421689 -0.357481 0
-0.147154 -1.1211 0
0.0152926 -1.24708 0
0.094341 -1.00457 0
-0.347751 -0.470921 0
-0.00872661 -0.329443 0
-0.522403 -1.23498 0
