# vtk DataFile Version 2.0
Unstructured Grid by M++
ASCII
DATASET UNSTRUCTURED_GRID
POINTS 81 float
  1.000000   0.625000 0
  0.750000   0.375000 0
  1.000000   0.000000 0
  0.875000   0.875000 0
  0.750000   0.125000 0
  1.000000   1.000000 0
  0.875000   0.250000 0
  0.625000   0.875000 0
  1.000000   0.750000 0
  0.875000   0.000000 0
  1.000000   0.250000 0
  0.625000   0.375000 0
  0.875000   0.500000 0
  0.625000   0.625000 0
  1.000000   0.500000 0
  0.750000   0.500000 0
  0.750000   1.000000 0
  1.000000   0.125000 0
  0.625000   0.250000 0
  0.750000   0.750000 0
  0.625000   0.000000 0
  0.125000   0.375000 0
  0.000000   0.500000 0
  0.125000   0.625000 0
  0.625000   1.000000 0
  1.000000   0.875000 0
  0.875000   0.125000 0
  0.500000   0.250000 0
  0.625000   0.500000 0
  0.250000   0.625000 0
  0.000000   0.625000 0
  0.375000   0.500000 0
  0.375000   0.000000 0
  0.000000   0.125000 0
  0.125000   0.875000 0
  0.875000   1.000000 0
  0.750000   0.250000 0
  0.375000   0.375000 0
  0.250000   0.375000 0
  0.625000   0.750000 0
  0.125000   0.125000 0
  0.500000   0.000000 0
  0.250000   0.875000 0
  0.125000   0.500000 0
  0.500000   0.375000 0
  0.125000   0.000000 0
  0.250000   0.750000 0
  0.250000   0.500000 0
  0.000000   0.875000 0
  0.875000   0.625000 0
  0.500000   0.750000 0
  0.750000   0.625000 0
  0.250000   0.000000 0
  0.375000   0.750000 0
  0.750000   0.875000 0
  0.625000   0.125000 0
  0.250000   0.250000 0
  0.375000   1.000000 0
  0.375000   0.250000 0
  0.000000   0.375000 0
  0.500000   1.000000 0
  0.875000   0.750000 0
  0.750000   0.000000 0
  0.375000   0.125000 0
  0.500000   0.875000 0
  0.000000   0.000000 0
  0.125000   0.750000 0
  0.500000   0.625000 0
  0.125000   0.250000 0
  0.500000   0.125000 0
  0.250000   1.000000 0
  0.250000   0.125000 0
  0.000000   1.000000 0
  0.375000   0.875000 0
  0.000000   0.750000 0
  0.375000   0.625000 0
  0.000000   0.250000 0
  0.125000   1.000000 0
  1.000000   0.375000 0
  0.500000   0.500000 0
  0.875000   0.375000 0
CELLS 64 320
4 56 71 58 63
4 27 58 69 63
4 41 69 32 63
4 76 33 68 40
4 27 44 58 37
4 79 31 44 37
4 56 38 68 21
4 56 58 38 37
4 52 32 71 63
4 47 38 31 37
4 76 68 59 21
4 22 59 43 21
4 65 45 33 40
4 47 43 38 21
4 52 71 45 40
4 56 68 71 40
4 74 30 66 23
4 46 66 29 23
4 22 43 30 23
4 72 48 77 34
4 46 53 42 73
4 50 64 53 73
4 70 42 57 73
4 74 66 48 34
4 46 42 66 34
4 47 29 43 23
4 70 77 42 34
4 60 57 64 73
4 79 67 31 75
4 47 31 29 75
4 50 53 67 75
4 46 29 53 75
4 10 78 6 80
4 36 6 1 80
4 15 1 12 80
4 36 4 6 26
4 14 12 78 80
4 2 17 9 26
4 36 18 4 55
4 15 28 1 11
4 62 4 20 55
4 10 6 17 26
4 27 18 44 11
4 62 9 4 26
4 27 69 18 55
4 36 1 18 11
4 41 20 69 55
4 79 44 28 11
4 16 24 54 7
4 19 54 39 7
4 50 39 64 7
4 8 25 61 3
4 60 64 24 7
4 79 28 67 13
4 19 51 61 49
4 8 61 0 49
4 15 51 28 13
4 19 39 51 13
4 50 67 39 13
4 19 61 54 3
4 14 0 12 49
4 5 35 25 3
4 15 12 51 49
4 16 54 35 3
CELL_TYPES 64
8
8
8
8
8
8
8
8
8
8
8
8
8
8
8
8
8
8
8
8
8
8
8
8
8
8
8
8
8
8
8
8
8
8
8
8
8
8
8
8
8
8
8
8
8
8
8
8
8
8
8
8
8
8
8
8
8
8
8
8
8
8
8
8
CELL_DATA 64
VECTORS vector_value float
-0.169146 -0.745196 0
-0.000424686 -0.155828 0
-0.00222977 -0.495882 0
0.0503721 -0.661208 0
-0.0501518 -1.07393 0
-0.543507 -1.21935 0
-0.231065 -0.293156 0
-0.362765 -0.561094 0
0.115659 -0.569937 0
-0.186927 -0.474676 0
-0.0542555 -0.533865 0
-0.101373 -0.426875 0
0.0627374 -0.385329 0
-0.096303 -0.114442 0
0.155742 -0.737482 0
-0.109233 -0.454407 0
0.133793 -0.431483 0
0.311983 -0.444957 0
0.00705019 -0.255021 0
0.0403497 -0.975565 0
0.211904 -0.110099 0
0.0229425 -0.00411585 0
1.07725 -0.485353 0
0.179117 -0.737652 0
0.343728 -0.486099 0
0.0613512 -0.325444 0
0.335684 -0.586418 0
2.1552 -0.489976 0
-0.0277395 -0.351137 0
0.236355 -0.559939 0
0.00485309 -0.0306203 0
0.189161 -0.426253 0
0.293694 -1.24752 0
0.308212 -0.551156 0
0.298538 -0.748206 0
0.436231 -0.865564 0
0.0724458 -0.676137 0
0.305227 -2.06774 0
0.411574 -1.78549 0
-0.24974 -1.94042 0
-0.0971166 -1.05576 0
0.0876847 -1.49598 0
0.487516 -2.13733 0
0.360834 -0.624428 0
0.193189 -1.83633 0
0.386957 -1.60195 0
-0.354765 -2.06344 0
-0.799192 -2.3999 0
1.03304 -1.75748 0
0.836714 -2.44521 0
0.595976 -1.62848 0
0.0559883 -1.54857 0
2.20375 -1.94901 0
-1.00859 -1.84123 0
-0.634683 -2.43112 0
-0.324365 -0.96301 0
-1.2388 -2.55713 0
-0.378768 -2.57922 0
-0.097369 -0.693336 0
0.501056 -1.03977 0
-0.0124588 -0.650987 0
0.106525 -1.11213 0
-0.501237 -1.45911 0
0.171142 -0.64407 0
