# vtk DataFile Version 2.0
Unstructured Grid by M++
ASCII
DATASET UNSTRUCTURED_GRID
POINTS 81 float
  1.000000   0.625000 0
  0.750000   0.375000 0
  1.000000   0.000000 0
  0.875000   0.875000 0
  0.750000   0.125000 0
  1.000000   1.000000 0
  0.875000   0.250000 0
  0.625000   0.875000 0
  1.000000   0.750000 0
  0.875000   0.000000 0
  1.000000   0.250000 0
  0.625000   0.375000 0
  0.875000   0.500000 0
  0.625000   0.625000 0
  1.000000   0.500000 0
  0.750000   0.500000 0
  0.750000   1.000000 0
  1.000000   0.125000 0
  0.625000   0.250000 0
  0.750000   0.750000 0
  0.625000   0.000000 0
  0.125000   0.375000 0
  0.000000   0.500000 0
  0.125000   0.625000 0
  0.625000   1.000000 0
  1.000000   0.875000 0
  0.875000   0.125000 0
  0.500000   0.250000 0
  0.625000   0.500000 0
  0.250000   0.625000 0
  0.000000   0.625000 0
  0.375000   0.500000 0
  0.375000   0.000000 0
  0.000000   0.125000 0
  0.125000   0.875000 0
  0.875000   1.000000 0
  0.750000   0.250000 0
  0.375000   0.375000 0
  0.250000   0.375000 0
  0.625000   0.750000 0
  0.125000   0.125000 0
  0.500000   0.000000 0
  0.250000   0.875000 0
  0.125000   0.500000 0
  0.500000   0.375000 0
  0.125000   0.000000 0
  0.250000   0.750000 0
  0.250000   0.500000 0
  0.000000   0.875000 0
  0.875000   0.625000 0
  0.500000   0.750000 0
  0.750000   0.625000 0
  0.250000   0.000000 0
  0.375000   0.750000 0
  0.750000   0.875000 0
  0.625000   0.125000 0
  0.250000   0.250000 0
  0.375000   1.000000 0
  0.375000   0.250000 0
  0.000000   0.375000 0
  0.500000   1.000000 0
  0.875000   0.750000 0
  0.750000   0.000000 0
  0.375000   0.125000 0
  0.500000   0.875000 0
  0.000000   0.000000 0
  0.125000   0.750000 0
  0.500000   0.625000 0
  0.125000   0.250000 0
  0.500000   0.125000 0
  0.250000   1.000000 0
  0.250000   0.125000 0
  0.000000   1.000000 0
  0.375000   0.875000 0
  0.000000   0.750000 0
  0.375000   0.625000 0
  0.000000   0.250000 0
  0.125000   1.000000 0
  1.000000   0.375000 0
  0.500000   0.500000 0
  0.875000   0.375000 0
CELLS 64 320
4 56 71 58 63
4 27 58 69 63
4 41 69 32 63
4 76 33 68 40
4 27 44 58 37
4 79 31 44 37
4 56 38 68 21
4 56 58 38 37
4 52 32 71 63
4 47 38 31 37
4 76 68 59 21
4 22 59 43 21
4 65 45 33 40
4 47 43 38 21
4 52 71 45 40
4 56 68 71 40
4 74 30 66 23
4 46 66 29 23
4 22 43 30 23
4 72 48 77 34
4 46 53 42 73
4 50 64 53 73
4 70 42 57 73
4 74 66 48 34
4 46 42 66 34
4 47 29 43 23
4 70 77 42 34
4 60 57 64 73
4 79 67 31 75
4 47 31 29 75
4 50 53 67 75
4 46 29 53 75
4 10 78 6 80
4 36 6 1 80
4 15 1 12 80
4 36 4 6 26
4 14 12 78 80
4 2 17 9 26
4 36 18 4 55
4 15 28 1 11
4 62 4 20 55
4 10 6 17 26
4 27 18 44 11
4 62 9 4 26
4 27 69 18 55
4 36 1 18 11
4 41 20 69 55
4 79 44 28 11
4 16 24 54 7
4 19 54 39 7
4 50 39 64 7
4 8 25 61 3
4 60 64 24 7
4 79 28 67 13
4 19 51 61 49
4 8 61 0 49
4 15 51 28 13
4 19 39 51 13
4 50 67 39 13
4 19 61 54 3
4 14 0 12 49
4 5 35 25 3
4 15 12 51 49
4 16 54 35 3
CELL_TYPES 64
8
8
8
8
8
8
8
8
8
8
8
8
8
8
8
8
8
8
8
8
8
8
8
8
8
8
8
8
8
8
8
8
8
8
8
8
8
8
8
8
8
8
8
8
8
8
8
8
8
8
8
8
8
8
8
8
8
8
8
8
8
8
8
8
CELL_DATA 64
VECTORS vector_value float
0.614624 -1.37349 0
1.00971 -2.69258 0
0.254475 -3.1868 0
-0.00600385 -0.164568 0
0.987945 -1.68132 0
-0.181671 -1.1264 0
0.786545 -1.2433 0
1.66669 -2.47955 0
0.0797603 -0.541157 0
0.0313522 -1.93853 0
0.126132 -0.247701 0
0.506236 -0.995661 0
-0.0110955 -0.204248 0
1.52584 -1.69985 0
-0.00767867 -0.614374 0
0.0428212 -0.670265 0
-0.25278 -2.74093 0
0.0515636 -0.660259 0
0.775175 -2.80583 0
-0.395638 -1.60284 0
-0.345528 -0.408783 0
-0.11742 -0.277844 0
-0.691884 -0.652288 0
-0.345998 -2.0305 0
-0.868467 -1.24192 0
0.129644 -0.304194 0
-0.672982 -0.840606 0
-0.275973 -0.827655 0
-0.603732 -1.61349 0
0.0182376 -0.666817 0
-0.484102 -1.11788 0
0.0508398 -0.259882 0
0.0410637 -1.76066 0
0.042903 -0.29186 0
0.0445337 -0.398514 0
0.0405114 -0.225687 0
0.0575706 -1.65652 0
0.0215939 -1.89272 0
0.0551745 -0.0478625 0
-0.00700376 -0.0337938 0
0.0832263 -0.10122 0
0.0337803 -1.84282 0
0.117037 -0.269211 0
0.0619397 -0.250741 0
0.491622 -0.982729 0
0.00122886 -0.0264017 0
0.0861788 -1.20874 0
-0.0123098 -0.150737 0
-0.56515 -1.31606 0
0.139906 -1.09032 0
-0.441091 -1.55229 0
0.0518498 -0.627168 0
-0.153132 -1.35564 0
-0.333789 -0.510127 0
0.405987 -1.07337 0
0.176488 -0.890292 0
-0.0133608 -0.0291423 0
0.0139197 -0.261761 0
-0.391103 -0.995629 0
0.208775 -0.771186 0
0.272709 -1.30897 0
-0.205096 -0.65403 0
0.274088 -0.761435 0
-0.550325 -0.750878 0
