# vtk DataFile Version 2.0
Unstructured Grid by M++
ASCII
DATASET UNSTRUCTURED_GRID
POINTS 81 float
  1.000000   0.625000 0
  0.750000   0.375000 0
  1.000000   0.000000 0
  0.875000   0.875000 0
  0.750000   0.125000 0
  1.000000   1.000000 0
  0.875000   0.250000 0
  0.625000   0.875000 0
  1.000000   0.750000 0
  0.875000   0.000000 0
  1.000000   0.250000 0
  0.625000   0.375000 0
  0.875000   0.500000 0
  0.625000   0.625000 0
  1.000000   0.500000 0
  0.750000   0.500000 0
  0.750000   1.000000 0
  1.000000   0.125000 0
  0.625000   0.250000 0
  0.750000   0.750000 0
  0.625000   0.000000 0
  0.125000   0.375000 0
  0.000000   0.500000 0
  0.125000   0.625000 0
  0.625000   1.000000 0
  1.000000   0.875000 0
  0.875000   0.125000 0
  0.500000   0.250000 0
  0.625000   0.500000 0
  0.250000   0.625000 0
  0.000000   0.625000 0
  0.375000   0.500000 0
  0.375000   0.000000 0
  0.000000   0.125000 0
  0.125000   0.875000 0
  0.875000   1.000000 0
  0.750000   0.250000 0
  0.375000   0.375000 0
  0.250000   0.375000 0
  0.625000   0.750000 0
  0.125000   0.125000 0
  0.500000   0.000000 0
  0.250000   0.875000 0
  0.125000   0.500000 0
  0.500000   0.375000 0
  0.125000   0.000000 0
  0.250000   0.750000 0
  0.250000   0.500000 0
  0.000000   0.875000 0
  0.875000   0.625000 0
  0.500000   0.750000 0
  0.750000   0.625000 0
  0.250000   0.000000 0
  0.375000   0.750000 0
  0.750000   0.875000 0
  0.625000   0.125000 0
  0.250000   0.250000 0
  0.375000   1.000000 0
  0.375000   0.250000 0
  0.000000   0.375000 0
  0.500000   1.000000 0
  0.875000   0.750000 0
  0.750000   0.000000 0
  0.375000   0.125000 0
  0.500000   0.875000 0
  0.000000   0.000000 0
  0.125000   0.750000 0
  0.500000   0.625000 0
  0.125000   0.250000 0
  0.500000   0.125000 0
  0.250000   1.000000 0
  0.250000   0.125000 0
  0.000000   1.000000 0
  0.375000   0.875000 0
  0.000000   0.750000 0
  0.375000   0.625000 0
  0.000000   0.250000 0
  0.125000   1.000000 0
  1.000000   0.375000 0
  0.500000   0.500000 0
  0.875000   0.375000 0
CELLS 64 320
4 56 71 58 63
4 27 58 69 63
4 41 69 32 63
4 76 33 68 40
4 27 44 58 37
4 79 31 44 37
4 56 38 68 21
4 56 58 38 37
4 52 32 71 63
4 47 38 31 37
4 76 68 59 21
4 22 59 43 21
4 65 45 33 40
4 47 43 38 21
4 52 71 45 40
4 56 68 71 40
4 74 30 66 23
4 46 66 29 23
4 22 43 30 23
4 72 48 77 34
4 46 53 42 73
4 50 64 53 73
4 70 42 57 73
4 74 66 48 34
4 46 42 66 34
4 47 29 43 23
4 70 77 42 34
4 60 57 64 73
4 79 67 31 75
4 47 31 29 75
4 50 53 67 75
4 46 29 53 75
4 10 78 6 80
4 36 6 1 80
4 15 1 12 80
4 36 4 6 26
4 14 12 78 80
4 2 17 9 26
4 36 18 4 55
4 15 28 1 11
4 62 4 20 55
4 10 6 17 26
4 27 18 44 11
4 62 9 4 26
4 27 69 18 55
4 36 1 18 11
4 41 20 69 55
4 79 44 28 11
4 16 24 54 7
4 19 54 39 7
4 50 39 64 7
4 8 25 61 3
4 60 64 24 7
4 79 28 67 13
4 19 51 61 49
4 8 61 0 49
4 15 51 28 13
4 19 39 51 13
4 50 67 39 13
4 19 61 54 3
4 14 0 12 49
4 5 35 25 3
4 15 12 51 49
4 16 54 35 3
CELL_TYPES 64
8
8
8
8
8
8
8
8
8
8
8
8
8
8
8
8
8
8
8
8
8
8
8
8
8
8
8
8
8
8
8
8
8
8
8
8
8
8
8
8
8
8
8
8
8
8
8
8
8
8
8
8
8
8
8
8
8
8
8
8
8
8
8
8
CELL_DATA 64
VECTORS vector_value float
0.160562 -0.254725 0
-0.0013722 -0.46766 0
-0.0408303 -0.823887 0
-0.0690661 -0.839768 0
0.0379472 -0.61333 0
0.0694691 -0.51949 0
0.266924 -0.590405 0
0.0229589 -0.0273721 0
0.107001 -0.350681 0
0.0831583 -0.0483418 0
0.212721 -1.19233 0
-0.307779 -1.14394 0
-0.160127 -1.23309 0
-0.0685564 -0.678867 0
-0.0135547 -0.12411 0
-0.0324984 -0.743901 0
0.249611 -1.17173 0
0.128045 -0.827579 0
0.0813606 -0.503209 0
-0.202506 -1.29667 0
0.135147 -0.102261 0
0.347754 -1.04875 0
0.190014 -0.242738 0
0.0525524 -1.41756 0
0.160478 -0.75904 0
0.097367 -1.44829 0
-0.335609 -0.9987 0
0.609119 -0.93831 0
0.0931288 -0.175225 0
0.19845 -0.180204 0
0.258154 -0.450627 0
0.0880024 -0.222405 0
0.397297 -0.3277 0
0.592738 -4.31186 0
0.751449 -4.57096 0
0.418333 -1.82322 0
0.0334639 -0.0391958 0
0.71346 -3.61535 0
0.0368106 -1.20116 0
0.326237 -0.919594 0
0.105071 -0.627406 0
0.767865 -2.15624 0
-0.0214287 -0.0640837 0
0.772006 -0.86567 0
-0.19108 -0.513332 0
-0.482295 -0.872919 0
-0.0589755 -0.359803 0
-0.0178233 -0.0796114 0
0.86293 -0.39776 0
0.442035 -0.569393 0
0.389294 -0.657519 0
0.146024 -1.35772 0
0.723895 -1.409 0
0.354194 -0.421801 0
-0.204744 -1.86736 0
-0.650787 -1.1396 0
0.976248 -2.21972 0
0.0452003 -1.6189 0
0.600426 -0.701805 0
0.121194 -2.08776 0
-0.0158423 -0.0355342 0
0.035105 -1.03149 0
-0.307629 -3.01602 0
0.533507 -1.68533 0
