# vtk DataFile Version 2.0
Unstructured Grid by M++
ASCII
DATASET UNSTRUCTURED_GRID
POINTS 81 float
  1.000000   0.625000 0
  0.750000   0.375000 0
  1.000000   0.000000 0
  0.875000   0.875000 0
  0.750000   0.125000 0
  1.000000   1.000000 0
  0.875000   0.250000 0
  0.625000   0.875000 0
  1.000000   0.750000 0
  0.875000   0.000000 0
  1.000000   0.250000 0
  0.625000   0.375000 0
  0.875000   0.500000 0
  0.625000   0.625000 0
  1.000000   0.500000 0
  0.750000   0.500000 0
  0.750000   1.000000 0
  1.000000   0.125000 0
  0.625000   0.250000 0
  0.750000   0.750000 0
  0.625000   0.000000 0
  0.125000   0.375000 0
  0.000000   0.500000 0
  0.125000   0.625000 0
  0.625000   1.000000 0
  1.000000   0.875000 0
  0.875000   0.125000 0
  0.500000   0.250000 0
  0.625000   0.500000 0
  0.250000   0.625000 0
  0.000000   0.625000 0
  0.375000   0.500000 0
  0.375000   0.000000 0
  0.000000   0.125000 0
  0.125000   0.875000 0
  0.875000   1.000000 0
  0.750000   0.250000 0
  0.375000   0.375000 0
  0.250000   0.375000 0
  0.625000   0.750000 0
  0.125000   0.125000 0
  0.500000   0.000000 0
  0.250000   0.875000 0
  0.125000   0.500000 0
  0.500000   0.375000 0
  0.125000   0.000000 0
  0.250000   0.750000 0
  0.250000   0.500000 0
  0.000000   0.875000 0
  0.875000   0.625000 0
  0.500000   0.750000 0
  0.750000   0.625000 0
  0.250000   0.000000 0
  0.375000   0.750000 0
  0.750000   0.875000 0
  0.625000   0.125000 0
  0.250000   0.250000 0
  0.375000   1.000000 0
  0.375000   0.250000 0
  0.000000   0.375000 0
  0.500000   1.000000 0
  0.875000   0.750000 0
  0.750000   0.000000 0
  0.375000   0.125000 0
  0.500000   0.875000 0
  0.000000   0.000000 0
  0.125000   0.750000 0
  0.500000   0.625000 0
  0.125000   0.250000 0
  0.500000   0.125000 0
  0.250000   1.000000 0
  0.250000   0.125000 0
  0.000000   1.000000 0
  0.375000   0.875000 0
  0.000000   0.750000 0
  0.375000   0.625000 0
  0.000000   0.250000 0
  0.125000   1.000000 0
  1.000000   0.375000 0
  0.500000   0.500000 0
  0.875000   0.375000 0
CELLS 64 320
4 56 71 58 63
4 27 58 69 63
4 41 69 32 63
4 76 33 68 40
4 27 44 58 37
4 79 31 44 37
4 56 38 68 21
4 56 58 38 37
4 52 32 71 63
4 47 38 31 37
4 76 68 59 21
4 22 59 43 21
4 65 45 33 40
4 47 43 38 21
4 52 71 45 40
4 56 68 71 40
4 74 30 66 23
4 46 66 29 23
4 22 43 30 23
4 72 48 77 34
4 46 53 42 73
4 50 64 53 73
4 70 42 57 73
4 74 66 48 34
4 46 42 66 34
4 47 29 43 23
4 70 77 42 34
4 60 57 64 73
4 79 67 31 75
4 47 31 29 75
4 50 53 67 75
4 46 29 53 75
4 10 78 6 80
4 36 6 1 80
4 15 1 12 80
4 36 4 6 26
4 14 12 78 80
4 2 17 9 26
4 36 18 4 55
4 15 28 1 11
4 62 4 20 55
4 10 6 17 26
4 27 18 44 11
4 62 9 4 26
4 27 69 18 55
4 36 1 18 11
4 41 20 69 55
4 79 44 28 11
4 16 24 54 7
4 19 54 39 7
4 50 39 64 7
4 8 25 61 3
4 60 64 24 7
4 79 28 67 13
4 19 51 61 49
4 8 61 0 49
4 15 51 28 13
4 19 39 51 13
4 50 67 39 13
4 19 61 54 3
4 14 0 12 49
4 5 35 25 3
4 15 12 51 49
4 16 54 35 3
CELL_TYPES 64
8
8
8
8
8
8
8
8
8
8
8
8
8
8
8
8
8
8
8
8
8
8
8
8
8
8
8
8
8
8
8
8
8
8
8
8
8
8
8
8
8
8
8
8
8
8
8
8
8
8
8
8
8
8
8
8
8
8
8
8
8
8
8
8
CELL_DATA 64
VECTORS vector_value float
-0.00448913 -0.0107998 0
0.0406475 -0.405165 0
-0.00683291 -0.356751 0
-0.00323261 -0.312729 0
0.52659 -0.68397 0
2.94784 -3.2912 0
-0.046329 -0.112981 0
0.0428474 -0.120263 0
-0.0330107 -0.0645174 0
0.986796 -1.44568 0
-0.0522917 -0.253759 0
-0.0560317 -0.0985346 0
0.0131726 -0.278903 0
-0.181733 -0.211221 0
0.0149739 -0.118486 0
-0.00630503 -0.0793298 0
0.007469 -0.115272 0
0.0151994 -0.0947 0
0.0134957 -0.0818226 0
0.423889 -0.35649 0
0.75494 -3.58578 0
0.14463 -0.808401 0
0.188742 -1.65053 0
0.0162735 -0.132282 0
0.0337502 -0.121896 0
0.0382942 -0.0728876 0
1.2965 -1.4936 0
-0.746176 -1.07834 0
-0.359139 -1.79764 0
-0.0142937 -3.17342 0
0.311024 -2.23289 0
0.143319 -2.42192 0
-0.00268455 -0.0180528 0
0.0213739 -0.247665 0
-0.252223 -0.389253 0
0.50199 -0.355026 0
-0.0197967 -0.0483542 0
0.274484 -0.720645 0
2.72347 -4.39149 0
-0.188097 -1.03864 0
0.0694733 -2.91042 0
0.120582 -0.186252 0
3.17824 -4.96357 0
1.21932 -2.00365 0
0.841663 -2.25921 0
0.465493 -1.59974 0
0.0159686 -1.54663 0
0.22455 -1.47712 0
0.467943 -0.563037 0
-0.139292 -0.253063 0
-0.147759 -0.330775 0
-0.227913 -1.54698 0
-0.243089 -0.243256 0
-0.650788 -1.25716 0
-0.871327 -0.497014 0
-0.297166 -0.977644 0
-0.278367 -0.81473 0
-1.42955 -1.32435 0
-0.308098 -0.336208 0
-0.592836 -1.22082 0
-0.27615 -0.456055 0
0.334714 -1.59971 0
-0.338254 -0.346284 0
0.737642 -1.01503 0
