# vtk DataFile Version 2.0
Unstructured Grid by M++
ASCII
DATASET UNSTRUCTURED_GRID
POINTS 81 float
  1.000000   0.625000 0
  0.750000   0.375000 0
  1.000000   0.000000 0
  0.875000   0.875000 0
  0.750000   0.125000 0
  1.000000   1.000000 0
  0.875000   0.250000 0
  0.625000   0.875000 0
  1.000000   0.750000 0
  0.875000   0.000000 0
  1.000000   0.250000 0
  0.625000   0.375000 0
  0.875000   0.500000 0
  0.625000   0.625000 0
  1.000000   0.500000 0
  0.750000   0.500000 0
  0.750000   1.000000 0
  1.000000   0.125000 0
  0.625000   0.250000 0
  0.750000   0.750000 0
  0.625000   0.000000 0
  0.125000   0.375000 0
  0.000000   0.500000 0
  0.125000   0.625000 0
  0.625000   1.000000 0
  1.000000   0.875000 0
  0.875000   0.125000 0
  0.500000   0.250000 0
  0.625000   0.500000 0
  0.250000   0.625000 0
  0.000000   0.625000 0
  0.375000   0.500000 0
  0.375000   0.000000 0
  0.000000   0.125000 0
  0.125000   0.875000 0
  0.875000   1.000000 0
  0.750000   0.250000 0
  0.375000   0.375000 0
  0.250000   0.375000 0
  0.625000   0.750000 0
  0.125000   0.125000 0
  0.500000   0.000000 0
  0.250000   0.875000 0
  0.125000   0.500000 0
  0.500000   0.375000 0
  0.125000   0.000000 0
  0.250000   0.750000 0
  0.250000   0.500000 0
  0.000000   0.875000 0
  0.875000   0.625000 0
  0.500000   0.750000 0
  0.750000   0.625000 0
  0.250000   0.000000 0
  0.375000   0.750000 0
  0.750000   0.875000 0
  0.625000   0.125000 0
  0.250000   0.250000 0
  0.375000   1.000000 0
  0.375000   0.250000 0
  0.000000   0.375000 0
  0.500000   1.000000 0
  0.875000   0.750000 0
  0.750000   0.000000 0
  0.375000   0.125000 0
  0.500000   0.875000 0
  0.000000   0.000000 0
  0.125000   0.750000 0
  0.500000   0.625000 0
  0.125000   0.250000 0
  0.500000   0.125000 0
  0.250000   1.000000 0
  0.250000   0.125000 0
  0.000000   1.000000 0
  0.375000   0.875000 0
  0.000000   0.750000 0
  0.375000   0.625000 0
  0.000000   0.250000 0
  0.125000   1.000000 0
  1.000000   0.375000 0
  0.500000   0.500000 0
  0.875000   0.375000 0
CELLS 64 320
4 56 71 58 63
4 27 58 69 63
4 41 69 32 63
4 76 33 68 40
4 27 44 58 37
4 79 31 44 37
4 56 38 68 21
4 56 58 38 37
4 52 32 71 63
4 47 38 31 37
4 76 68 59 21
4 22 59 43 21
4 65 45 33 40
4 47 43 38 21
4 52 71 45 40
4 56 68 71 40
4 74 30 66 23
4 46 66 29 23
4 22 43 30 23
4 72 48 77 34
4 46 53 42 73
4 50 64 53 73
4 70 42 57 73
4 74 66 48 34
4 46 42 66 34
4 47 29 43 23
4 70 77 42 34
4 60 57 64 73
4 79 67 31 75
4 47 31 29 75
4 50 53 67 75
4 46 29 53 75
4 10 78 6 80
4 36 6 1 80
4 15 1 12 80
4 36 4 6 26
4 14 12 78 80
4 2 17 9 26
4 36 18 4 55
4 15 28 1 11
4 62 4 20 55
4 10 6 17 26
4 27 18 44 11
4 62 9 4 26
4 27 69 18 55
4 36 1 18 11
4 41 20 69 55
4 79 44 28 11
4 16 24 54 7
4 19 54 39 7
4 50 39 64 7
4 8 25 61 3
4 60 64 24 7
4 79 28 67 13
4 19 51 61 49
4 8 61 0 49
4 15 51 28 13
4 19 39 51 13
4 50 67 39 13
4 19 61 54 3
4 14 0 12 49
4 5 35 25 3
4 15 12 51 49
4 16 54 35 3
CELL_TYPES 64
8
8
8
8
8
8
8
8
8
8
8
8
8
8
8
8
8
8
8
8
8
8
8
8
8
8
8
8
8
8
8
8
8
8
8
8
8
8
8
8
8
8
8
8
8
8
8
8
8
8
8
8
8
8
8
8
8
8
8
8
8
8
8
8
CELL_DATA 64
VECTORS vector_value float
-0.378037 -1.2294 0
-0.213697 -1.50495 0
-0.101591 -1.13862 0
0.0250166 -1.43009 0
-0.669915 -2.24861 0
-0.205128 -1.64123 0
0.111089 -0.787256 0
-0.133436 -0.492744 0
-0.103209 -1.62086 0
0.0189448 -0.173696 0
0.110913 -1.71753 0
-0.177804 -1.69125 0
-0.0738933 -1.60388 0
-0.06233 -0.985949 0
-0.0603016 -0.938775 0
0.0260664 -1.10625 0
-0.0213467 -0.842082 0
-0.0305819 -1.16662 0
-0.251886 -1.12035 0
0.0052381 -1.09795 0
0.0779358 -0.746573 0
0.172943 -0.821502 0
-0.230532 -1.09451 0
0.0695052 -0.90391 0
0.158579 -1.44277 0
-0.57821 -1.40577 0
-0.147631 -1.04316 0
-0.141538 -0.887326 0
-0.0823669 -0.87151 0
-0.0575094 -0.538088 0
-0.00846809 -0.800605 0
-0.0644477 -1.0397 0
0.0145141 -0.85293 0
0.0544942 -0.279382 0
-0.0160483 -0.22594 0
0.0746324 -0.268601 0
-0.0252995 -0.89219 0
-0.0309978 -0.883503 0
0.113641 -0.639899 0
-0.0197545 -0.573704 0
0.0854178 -0.526553 0
0.0194532 -0.968277 0
-0.150902 -0.934094 0
0.0462217 -0.561121 0
0.0366601 -0.852547 0
0.10617 -0.687451 0
0.0144669 -0.726683 0
-0.362365 -1.81604 0
-0.0687749 -0.994162 0
-0.301225 -1.17775 0
0.025871 -1.2612 0
-0.112308 -1.08771 0
-0.083501 -0.905924 0
-0.382824 -1.98073 0
-0.166973 -0.300126 0
-0.0318487 -0.904727 0
-0.215786 -1.01857 0
-0.477554 -1.31674 0
-0.260478 -1.6294 0
-0.398377 -0.558589 0
-0.00094116 -0.972858 0
0.104013 -1.3476 0
-0.00961366 -0.0921299 0
0.08743 -0.629371 0
