# vtk DataFile Version 2.0
Unstructured Grid by M++
ASCII
DATASET UNSTRUCTURED_GRID
POINTS 81 float
  1.000000   0.625000 0
  0.750000   0.375000 0
  1.000000   0.000000 0
  0.875000   0.875000 0
  0.750000   0.125000 0
  1.000000   1.000000 0
  0.875000   0.250000 0
  0.625000   0.875000 0
  1.000000   0.750000 0
  0.875000   0.000000 0
  1.000000   0.250000 0
  0.625000   0.375000 0
  0.875000   0.500000 0
  0.625000   0.625000 0
  1.000000   0.500000 0
  0.750000   0.500000 0
  0.750000   1.000000 0
  1.000000   0.125000 0
  0.625000   0.250000 0
  0.750000   0.750000 0
  0.625000   0.000000 0
  0.125000   0.375000 0
  0.000000   0.500000 0
  0.125000   0.625000 0
  0.625000   1.000000 0
  1.000000   0.875000 0
  0.875000   0.125000 0
  0.500000   0.250000 0
  0.625000   0.500000 0
  0.250000   0.625000 0
  0.000000   0.625000 0
  0.375000   0.500000 0
  0.375000   0.000000 0
  0.000000   0.125000 0
  0.125000   0.875000 0
  0.875000   1.000000 0
  0.750000   0.250000 0
  0.375000   0.375000 0
  0.250000   0.375000 0
  0.625000   0.750000 0
  0.125000   0.125000 0
  0.500000   0.000000 0
  0.250000   0.875000 0
  0.125000   0.500000 0
  0.500000   0.375000 0
  0.125000   0.000000 0
  0.250000   0.750000 0
  0.250000   0.500000 0
  0.000000   0.875000 0
  0.875000   0.625000 0
  0.500000   0.750000 0
  0.750000   0.625000 0
  0.250000   0.000000 0
  0.375000   0.750000 0
  0.750000   0.875000 0
  0.625000   0.125000 0
  0.250000   0.250000 0
  0.375000   1.000000 0
  0.375000   0.250000 0
  0.000000   0.375000 0
  0.500000   1.000000 0
  0.875000   0.750000 0
  0.750000   0.000000 0
  0.375000   0.125000 0
  0.500000   0.875000 0
  0.000000   0.000000 0
  0.125000   0.750000 0
  0.500000   0.625000 0
  0.125000   0.250000 0
  0.500000   0.125000 0
  0.250000   1.000000 0
  0.250000   0.125000 0
  0.000000   1.000000 0
  0.375000   0.875000 0
  0.000000   0.750000 0
  0.375000   0.625000 0
  0.000000   0.250000 0
  0.125000   1.000000 0
  1.000000   0.375000 0
  0.500000   0.500000 0
  0.875000   0.375000 0
CELLS 64 320
4 56 71 58 63
4 27 58 69 63
4 41 69 32 63
4 76 33 68 40
4 27 44 58 37
4 79 31 44 37
4 56 38 68 21
4 56 58 38 37
4 52 32 71 63
4 47 38 31 37
4 76 68 59 21
4 22 59 43 21
4 65 45 33 40
4 47 43 38 21
4 52 71 45 40
4 56 68 71 40
4 74 30 66 23
4 46 66 29 23
4 22 43 30 23
4 72 48 77 34
4 46 53 42 73
4 50 64 53 73
4 70 42 57 73
4 74 66 48 34
4 46 42 66 34
4 47 29 43 23
4 70 77 42 34
4 60 57 64 73
4 79 67 31 75
4 47 31 29 75
4 50 53 67 75
4 46 29 53 75
4 10 78 6 80
4 36 6 1 80
4 15 1 12 80
4 36 4 6 26
4 14 12 78 80
4 2 17 9 26
4 36 18 4 55
4 15 28 1 11
4 62 4 20 55
4 10 6 17 26
4 27 18 44 11
4 62 9 4 26
4 27 69 18 55
4 36 1 18 11
4 41 20 69 55
4 79 44 28 11
4 16 24 54 7
4 19 54 39 7
4 50 39 64 7
4 8 25 61 3
4 60 64 24 7
4 79 28 67 13
4 19 51 61 49
4 8 61 0 49
4 15 51 28 13
4 19 39 51 13
4 50 67 39 13
4 19 61 54 3
4 14 0 12 49
4 5 35 25 3
4 15 12 51 49
4 16 54 35 3
CELL_TYPES 64
8
8
8
8
8
8
8
8
8
8
8
8
8
8
8
8
8
8
8
8
8
8
8
8
8
8
8
8
8
8
8
8
8
8
8
8
8
8
8
8
8
8
8
8
8
8
8
8
8
8
8
8
8
8
8
8
8
8
8
8
8
8
8
8
CELL_DATA 64
VECTORS vector_value float
-1.28217 -2.08248 0
-0.714209 -1.17085 0
-0.051309 -0.389649 0
-0.193789 -0.987627 0
-1.48847 -2.68586 0
-0.145338 -0.97411 0
-0.217205 -0.638473 0
-1.27161 -2.38574 0
-0.58211 -1.36292 0
0.0200559 -1.97246 0
-0.00875402 -0.691142 0
0.0882538 -0.919665 0
-0.433679 -1.86087 0
0.0443814 -0.276078 0
-1.09765 -2.70295 0
-1.05524 -1.84841 0
0.248862 -1.14194 0
1.18693 -1.83559 0
-0.0109141 -0.872159 0
0.0528956 -0.823865 0
-0.0260596 -0.212081 0
-0.0344559 -0.617162 0
-0.818235 -1.27108 0
-0.245593 -1.48589 0
-0.46177 -1.74029 0
0.102909 -0.449964 0
-0.397645 -1.23021 0
-0.265565 -1.18903 0
0.0736597 -0.231106 0
0.942962 -2.34392 0
-0.00442943 -0.225659 0
0.174865 -0.71888 0
-0.176264 -1.01325 0
-0.120942 -0.179413 0
-0.0949377 -0.243363 0
-0.0313985 -0.475012 0
0.178362 -1.09607 0
0.0578129 -0.856184 0
0.0147466 -0.0560935 0
-0.300376 -0.242237 0
0.0566686 -0.259704 0
0.0124037 -0.72449 0
-0.038042 -0.231383 0
0.0348931 -0.312012 0
0.0736087 -0.655028 0
-0.0720489 -0.174738 0
-0.00152659 -0.255707 0
-1.9215 -2.27601 0
-0.860851 -0.651903 0
-0.076744 -0.446516 0
0.57711 -2.20834 0
-0.525829 -1.17327 0
-0.744108 -1.19783 0
-0.116392 -1.01929 0
-0.393613 -1.56659 0
-0.0737938 -0.0950949 0
-0.856439 -1.33654 0
0.902537 -1.24151 0
0.226346 -1.17474 0
-0.0246423 -0.116448 0
0.329708 -0.368308 0
0.135328 -1.13564 0
0.398254 -1.37872 0
-0.249608 -0.500446 0
