# vtk DataFile Version 2.0
Unstructured Grid by M++
ASCII
DATASET UNSTRUCTURED_GRID
POINTS 81 float
  1.000000   0.625000 0
  0.750000   0.375000 0
  1.000000   0.000000 0
  0.875000   0.875000 0
  0.750000   0.125000 0
  1.000000   1.000000 0
  0.875000   0.250000 0
  0.625000   0.875000 0
  1.000000   0.750000 0
  0.875000   0.000000 0
  1.000000   0.250000 0
  0.625000   0.375000 0
  0.875000   0.500000 0
  0.625000   0.625000 0
  1.000000   0.500000 0
  0.750000   0.500000 0
  0.750000   1.000000 0
  1.000000   0.125000 0
  0.625000   0.250000 0
  0.750000   0.750000 0
  0.625000   0.000000 0
  0.125000   0.375000 0
  0.000000   0.500000 0
  0.125000   0.625000 0
  0.625000   1.000000 0
  1.000000   0.875000 0
  0.875000   0.125000 0
  0.500000   0.250000 0
  0.625000   0.500000 0
  0.250000   0.625000 0
  0.000000   0.625000 0
  0.375000   0.500000 0
  0.375000   0.000000 0
  0.000000   0.125000 0
  0.125000   0.875000 0
  0.875000   1.000000 0
  0.750000   0.250000 0
  0.375000   0.375000 0
  0.250000   0.375000 0
  0.625000   0.750000 0
  0.125000   0.125000 0
  0.500000   0.000000 0
  0.250000   0.875000 0
  0.125000   0.500000 0
  0.500000   0.375000 0
  0.125000   0.000000 0
  0.250000   0.750000 0
  0.250000   0.500000 0
  0.000000   0.875000 0
  0.875000   0.625000 0
  0.500000   0.750000 0
  0.750000   0.625000 0
  0.250000   0.000000 0
  0.375000   0.750000 0
  0.750000   0.875000 0
  0.625000   0.125000 0
  0.250000   0.250000 0
  0.375000   1.000000 0
  0.375000   0.250000 0
  0.000000   0.375000 0
  0.500000   1.000000 0
  0.875000   0.750000 0
  0.750000   0.000000 0
  0.375000   0.125000 0
  0.500000   0.875000 0
  0.000000   0.000000 0
  0.125000   0.750000 0
  0.500000   0.625000 0
  0.125000   0.250000 0
  0.500000   0.125000 0
  0.250000   1.000000 0
  0.250000   0.125000 0
  0.000000   1.000000 0
  0.375000   0.875000 0
  0.000000   0.750000 0
  0.375000   0.625000 0
  0.000000   0.250000 0
  0.125000   1.000000 0
  1.000000   0.375000 0
  0.500000   0.500000 0
  0.875000   0.375000 0
CELLS 64 320
4 56 71 58 63
4 27 58 69 63
4 41 69 32 63
4 76 33 68 40
4 27 44 58 37
4 79 31 44 37
4 56 38 68 21
4 56 58 38 37
4 52 32 71 63
4 47 38 31 37
4 76 68 59 21
4 22 59 43 21
4 65 45 33 40
4 47 43 38 21
4 52 71 45 40
4 56 68 71 40
4 74 30 66 23
4 46 66 29 23
4 22 43 30 23
4 72 48 77 34
4 46 53 42 73
4 50 64 53 73
4 70 42 57 73
4 74 66 48 34
4 46 42 66 34
4 47 29 43 23
4 70 77 42 34
4 60 57 64 73
4 79 67 31 75
4 47 31 29 75
4 50 53 67 75
4 46 29 53 75
4 10 78 6 80
4 36 6 1 80
4 15 1 12 80
4 36 4 6 26
4 14 12 78 80
4 2 17 9 26
4 36 18 4 55
4 15 28 1 11
4 62 4 20 55
4 10 6 17 26
4 27 18 44 11
4 62 9 4 26
4 27 69 18 55
4 36 1 18 11
4 41 20 69 55
4 79 44 28 11
4 16 24 54 7
4 19 54 39 7
4 50 39 64 7
4 8 25 61 3
4 60 64 24 7
4 79 28 67 13
4 19 51 61 49
4 8 61 0 49
4 15 51 28 13
4 19 39 51 13
4 50 67 39 13
4 19 61 54 3
4 14 0 12 49
4 5 35 25 3
4 15 12 51 49
4 16 54 35 3
CELL_TYPES 64
8
8
8
8
8
8
8
8
8
8
8
8
8
8
8
8
8
8
8
8
8
8
8
8
8
8
8
8
8
8
8
8
8
8
8
8
8
8
8
8
8
8
8
8
8
8
8
8
8
8
8
8
8
8
8
8
8
8
8
8
8
8
8
8
CELL_DATA 64
VECTORS vector_value float
0.0100713 -0.373854 0
0.044753 -0.110367 0
0.109484 -0.211416 0
-0.491106 -0.973384 0
-0.0575313 -0.318765 0
-0.0789091 -1.49844 0
-1.18041 -2.18256 0
-1.17184 -1.00563 0
0.00885195 -0.129468 0
-0.336078 -1.53512 0
-0.221627 -0.25322 0
-0.0447572 -0.0781089 0
-0.269122 -1.97532 0
-0.462702 -1.0336 0
-0.0863428 -1.26082 0
-0.660736 -2.19684 0
0.0124689 -0.0270589 0
0.369717 -0.949519 0
-0.000110111 -0.0104092 0
0.37289 -0.386771 0
0.494435 -0.789552 0
0.472706 -1.8582 0
0.484157 -1.22702 0
0.10885 -0.116578 0
0.302139 -1.33223 0
-0.0138621 -0.278716 0
0.612075 -1.24396 0
0.0756123 -1.44334 0
-0.241725 -1.18949 0
-0.393575 -2.66796 0
-0.277458 -2.08591 0
0.104582 -0.898479 0
-0.0354216 -1.3906 0
-0.0972119 -1.77399 0
-0.0514476 -1.24262 0
-0.434719 -1.03501 0
-0.0637276 -1.75536 0
-0.00972075 -1.53839 0
-0.439435 -0.852945 0
0.0990915 -0.473779 0
-0.38837 -0.910294 0
-0.0464965 -1.6798 0
0.218596 -0.593483 0
-0.0560061 -0.499472 0
-0.0563437 -0.777794 0
-0.0197286 -0.481751 0
-0.274082 -1.47482 0
0.133181 -0.382965 0
0.273313 -0.903444 0
0.229007 -0.325198 0
0.189984 -0.8235 0
0.599646 -1.12706 0
-0.101313 -0.619405 0
0.0157008 -0.533141 0
0.093453 -0.814026 0
0.18951 -2.06558 0
0.064417 -0.363743 0
0.109988 -0.362863 0
0.0141644 -0.796569 0
0.980654 -1.62768 0
-0.0755676 -1.94014 0
-0.290646 -0.505238 0
-0.0481613 -1.0164 0
-0.107768 -1.67083 0
