# vtk DataFile Version 2.0
Unstructured Grid by M++
ASCII
DATASET UNSTRUCTURED_GRID
POINTS 81 float
  1.000000   0.625000 0
  0.750000   0.375000 0
  1.000000   0.000000 0
  0.875000   0.875000 0
  0.750000   0.125000 0
  1.000000   1.000000 0
  0.875000   0.250000 0
  0.625000   0.875000 0
  1.000000   0.750000 0
  0.875000   0.000000 0
  1.000000   0.250000 0
  0.625000   0.375000 0
  0.875000   0.500000 0
  0.625000   0.625000 0
  1.000000   0.500000 0
  0.750000   0.500000 0
  0.750000   1.000000 0
  1.000000   0.125000 0
  0.625000   0.250000 0
  0.750000   0.750000 0
  0.625000   0.000000 0
  0.125000   0.375000 0
  0.000000   0.500000 0
  0.125000   0.625000 0
  0.625000   1.000000 0
  1.000000   0.875000 0
  0.875000   0.125000 0
  0.500000   0.250000 0
  0.625000   0.500000 0
  0.250000   0.625000 0
  0.000000   0.625000 0
  0.375000   0.500000 0
  0.375000   0.000000 0
  0.000000   0.125000 0
  0.125000   0.875000 0
  0.875000   1.000000 0
  0.750000   0.250000 0
  0.375000   0.375000 0
  0.250000   0.375000 0
  0.625000   0.750000 0
  0.125000   0.125000 0
  0.500000   0.000000 0
  0.250000   0.875000 0
  0.125000   0.500000 0
  0.500000   0.375000 0
  0.125000   0.000000 0
  0.250000   0.750000 0
  0.250000   0.500000 0
  0.000000   0.875000 0
  0.875000   0.625000 0
  0.500000   0.750000 0
  0.750000   0.625000 0
  0.250000   0.000000 0
  0.375000   0.750000 0
  0.750000   0.875000 0
  0.625000   0.125000 0
  0.250000   0.250000 0
  0.375000   1.000000 0
  0.375000   0.250000 0
  0.000000   0.375000 0
  0.500000   1.000000 0
  0.875000   0.750000 0
  0.750000   0.000000 0
  0.375000   0.125000 0
  0.500000   0.875000 0
  0.000000   0.000000 0
  0.125000   0.750000 0
  0.500000   0.625000 0
  0.125000   0.250000 0
  0.500000   0.125000 0
  0.250000   1.000000 0
  0.250000   0.125000 0
  0.000000   1.000000 0
  0.375000   0.875000 0
  0.000000   0.750000 0
  0.375000   0.625000 0
  0.000000   0.250000 0
  0.125000   1.000000 0
  1.000000   0.375000 0
  0.500000   0.500000 0
  0.875000   0.375000 0
CELLS 64 320
4 56 71 58 63
4 27 58 69 63
4 41 69 32 63
4 76 33 68 40
4 27 44 58 37
4 79 31 44 37
4 56 38 68 21
4 56 58 38 37
4 52 32 71 63
4 47 38 31 37
4 76 68 59 21
4 22 59 43 21
4 65 45 33 40
4 47 43 38 21
4 52 71 45 40
4 56 68 71 40
4 74 30 66 23
4 46 66 29 23
4 22 43 30 23
4 72 48 77 34
4 46 53 42 73
4 50 64 53 73
4 70 42 57 73
4 74 66 48 34
4 46 42 66 34
4 47 29 43 23
4 70 77 42 34
4 60 57 64 73
4 79 67 31 75
4 47 31 29 75
4 50 53 67 75
4 46 29 53 75
4 10 78 6 80
4 36 6 1 80
4 15 1 12 80
4 36 4 6 26
4 14 12 78 80
4 2 17 9 26
4 36 18 4 55
4 15 28 1 11
4 62 4 20 55
4 10 6 17 26
4 27 18 44 11
4 62 9 4 26
4 27 69 18 55
4 36 1 18 11
4 41 20 69 55
4 79 44 28 11
4 16 24 54 7
4 19 54 39 7
4 50 39 64 7
4 8 25 61 3
4 60 64 24 7
4 79 28 67 13
4 19 51 61 49
4 8 61 0 49
4 15 51 28 13
4 19 39 51 13
4 50 67 39 13
4 19 61 54 3
4 14 0 12 49
4 5 35 25 3
4 15 12 51 49
4 16 54 35 3
CELL_TYPES 64
8
8
8
8
8
8
8
8
8
8
8
8
8
8
8
8
8
8
8
8
8
8
8
8
8
8
8
8
8
8
8
8
8
8
8
8
8
8
8
8
8
8
8
8
8
8
8
8
8
8
8
8
8
8
8
8
8
8
8
8
8
8
8
8
CELL_DATA 64
VECTORS vector_value float
-0.0258036 -0.134605 0
0.166132 -0.351397 0
0.0169866 -0.210813 0
-0.0753518 -4.40932 0
-0.016123 -0.410488 0
-0.148723 -0.392867 0
-0.20646 -0.611194 0
-0.215569 -0.770153 0
0.00862463 -0.192846 0
-0.0865047 -0.646767 0
-0.0704541 -4.22741 0
-0.904749 -3.79131 0
-0.00324034 -4.44152 0
-0.331984 -0.987642 0
0.0434001 -0.837604 0
-0.262915 -0.902369 0
-0.215866 -0.663142 0
-0.750795 -1.90062 0
-0.658517 -1.50567 0
0.239995 -0.507021 0
0.00648563 -2.66322 0
-0.318698 -0.627926 0
-0.724954 -1.65027 0
-0.0331196 -0.551909 0
-0.232015 -1.34394 0
-1.91993 -2.42905 0
0.307601 -1.75687 0
-1.09683 -0.738379 0
-0.472387 -0.896869 0
-1.02627 -0.893669 0
-0.204903 -1.47278 0
-0.810128 -1.57487 0
0.248358 -0.674191 0
0.196165 -0.520156 0
0.43159 -0.580711 0
0.0313756 -0.0699051 0
0.0930475 -0.18415 0
-0.0223157 -0.96569 0
-0.00546178 -0.802912 0
0.369865 -0.958764 0
0.186562 -0.635772 0
0.117053 -0.967724 0
0.001256 -0.215621 0
0.154601 -0.347724 0
0.186527 -0.361767 0
0.0229097 -0.570789 0
0.0793151 -0.368026 0
-0.0803508 -0.457786 0
-0.256308 -0.820054 0
-0.537706 -0.83058 0
-0.337522 -0.380382 0
-0.225696 -0.420208 0
-0.646317 -0.632217 0
0.122311 -0.966732 0
-0.511929 -0.940711 0
-0.0734172 -0.117552 0
0.0100838 -0.818972 0
-0.62755 -0.538592 0
-0.678802 -0.791738 0
-0.444653 -1.18184 0
0.0159358 -0.0560501 0
-0.17384 -0.726861 0
0.0518439 -0.432981 0
-0.243674 -1.16832 0
