# vtk DataFile Version 2.0
Unstructured Grid by M++
ASCII
DATASET UNSTRUCTURED_GRID
POINTS 81 float
  1.000000   0.625000 0
  0.750000   0.375000 0
  1.000000   0.000000 0
  0.875000   0.875000 0
  0.750000   0.125000 0
  1.000000   1.000000 0
  0.875000   0.250000 0
  0.625000   0.875000 0
  1.000000   0.750000 0
  0.875000   0.000000 0
  1.000000   0.250000 0
  0.625000   0.375000 0
  0.875000   0.500000 0
  0.625000   0.625000 0
  1.000000   0.500000 0
  0.750000   0.500000 0
  0.750000   1.000000 0
  1.000000   0.125000 0
  0.625000   0.250000 0
  0.750000   0.750000 0
  0.625000   0.000000 0
  0.125000   0.375000 0
  0.000000   0.500000 0
  0.125000   0.625000 0
  0.625000   1.000000 0
  1.000000   0.875000 0
  0.875000   0.125000 0
  0.500000   0.250000 0
  0.625000   0.500000 0
  0.250000   0.625000 0
  0.000000   0.625000 0
  0.375000   0.500000 0
  0.375000   0.000000 0
  0.000000   0.125000 0
  0.125000   0.875000 0
  0.875000   1.000000 0
  0.750000   0.250000 0
  0.375000   0.375000 0
  0.250000   0.375000 0
  0.625000   0.750000 0
  0.125000   0.125000 0
  0.500000   0.000000 0
  0.250000   0.875000 0
  0.125000   0.500000 0
  0.500000   0.375000 0
  0.125000   0.000000 0
  0.250000   0.750000 0
  0.250000   0.500000 0
  0.000000   0.875000 0
  0.875000   0.625000 0
  0.500000   0.750000 0
  0.750000   0.625000 0
  0.250000   0.000000 0
  0.375000   0.750000 0
  0.750000   0.875000 0
  0.625000   0.125000 0
  0.250000   0.250000 0
  0.375000   1.000000 0
  0.375000   0.250000 0
  0.000000   0.375000 0
  0.500000   1.000000 0
  0.875000   0.750000 0
  0.750000   0.000000 0
  0.375000   0.125000 0
  0.500000   0.875000 0
  0.000000   0.000000 0
  0.125000   0.750000 0
  0.500000   0.625000 0
  0.125000   0.250000 0
  0.500000   0.125000 0
  0.250000   1.000000 0
  0.250000   0.125000 0
  0.000000   1.000000 0
  0.375000   0.875000 0
  0.000000   0.750000 0
  0.375000   0.625000 0
  0.000000   0.250000 0
  0.125000   1.000000 0
  1.000000   0.375000 0
  0.500000   0.500000 0
  0.875000   0.375000 0
CELLS 64 320
4 56 71 58 63
4 27 58 69 63
4 41 69 32 63
4 76 33 68 40
4 27 44 58 37
4 79 31 44 37
4 56 38 68 21
4 56 58 38 37
4 52 32 71 63
4 47 38 31 37
4 76 68 59 21
4 22 59 43 21
4 65 45 33 40
4 47 43 38 21
4 52 71 45 40
4 56 68 71 40
4 74 30 66 23
4 46 66 29 23
4 22 43 30 23
4 72 48 77 34
4 46 53 42 73
4 50 64 53 73
4 70 42 57 73
4 74 66 48 34
4 46 42 66 34
4 47 29 43 23
4 70 77 42 34
4 60 57 64 73
4 79 67 31 75
4 47 31 29 75
4 50 53 67 75
4 46 29 53 75
4 10 78 6 80
4 36 6 1 80
4 15 1 12 80
4 36 4 6 26
4 14 12 78 80
4 2 17 9 26
4 36 18 4 55
4 15 28 1 11
4 62 4 20 55
4 10 6 17 26
4 27 18 44 11
4 62 9 4 26
4 27 69 18 55
4 36 1 18 11
4 41 20 69 55
4 79 44 28 11
4 16 24 54 7
4 19 54 39 7
4 50 39 64 7
4 8 25 61 3
4 60 64 24 7
4 79 28 67 13
4 19 51 61 49
4 8 61 0 49
4 15 51 28 13
4 19 39 51 13
4 50 67 39 13
4 19 61 54 3
4 14 0 12 49
4 5 35 25 3
4 15 12 51 49
4 16 54 35 3
CELL_TYPES 64
8
8
8
8
8
8
8
8
8
8
8
8
8
8
8
8
8
8
8
8
8
8
8
8
8
8
8
8
8
8
8
8
8
8
8
8
8
8
8
8
8
8
8
8
8
8
8
8
8
8
8
8
8
8
8
8
8
8
8
8
8
8
8
8
CELL_DATA 64
VECTORS vector_value float
-0.109584 -1.2259 0
-0.113125 -0.33719 0
-0.138347 -0.298564 0
-0.0259997 -0.135916 0
-0.262463 -1.11854 0
1.40967 -1.67334 0
-0.140765 -0.562747 0
-0.495458 -0.7669 0
0.118993 -1.87237 0
0.158833 -1.07866 0
0.018185 -0.128611 0
0.0614498 -0.257235 0
-0.122317 -0.381176 0
0.0125683 -0.209791 0
0.0307869 -0.174565 0
0.0137179 -0.841703 0
0.0627105 -0.387206 0
1.28767 -2.87225 0
0.0369231 -0.34166 0
0.237815 -0.594583 0
-0.118221 -0.359714 0
-0.133022 -0.589265 0
-1.23239 -0.181063 0
0.0202587 -0.519695 0
-0.0176536 -3.14207 0
0.409619 -0.529726 0
-0.55927 -2.44432 0
-0.776728 -1.08386 0
0.820581 -0.302101 0
2.30243 -2.85855 0
0.092986 -0.607792 0
0.4033 -0.913114 0
0.126535 -0.400417 0
0.577571 -0.894132 0
-0.013544 -1.13294 0
1.77285 -3.37649 0
0.0963351 -0.11413 0
0.557562 -2.24287 0
0.100562 -0.885365 0
0.240911 -2.484 0
0.0231356 -0.984633 0
0.39821 -0.776186 0
0.676029 -0.994652 0
0.129093 -1.92317 0
-0.0335528 -0.42125 0
2.0113 -3.134 0
-0.00671163 -0.122647 0
0.797424 -1.04991 0
-0.45472 -0.982972 0
0.297338 -0.595417 0
0.0259177 -0.932641 0
-0.274259 -0.544583 0
-0.577039 -1.22163 0
0.793916 -1.01979 0
-0.0827295 -2.04733 0
-0.119149 -0.204449 0
-0.210139 -1.32083 0
0.153829 -0.452976 0
0.0349006 -0.514889 0
-0.0529933 -1.31661 0
-0.0216596 -0.0743783 0
-0.0492126 -1.11251 0
-0.361343 -1.55297 0
-0.24293 -0.379059 0
