# vtk DataFile Version 2.0
Unstructured Grid by M++
ASCII
DATASET UNSTRUCTURED_GRID
POINTS 81 float
  1.000000   0.625000 0
  0.750000   0.375000 0
  1.000000   0.000000 0
  0.875000   0.875000 0
  0.750000   0.125000 0
  1.000000   1.000000 0
  0.875000   0.250000 0
  0.625000   0.875000 0
  1.000000   0.750000 0
  0.875000   0.000000 0
  1.000000   0.250000 0
  0.625000   0.375000 0
  0.875000   0.500000 0
  0.625000   0.625000 0
  1.000000   0.500000 0
  0.750000   0.500000 0
  0.750000   1.000000 0
  1.000000   0.125000 0
  0.625000   0.250000 0
  0.750000   0.750000 0
  0.625000   0.000000 0
  0.125000   0.375000 0
  0.000000   0.500000 0
  0.125000   0.625000 0
  0.625000   1.000000 0
  1.000000   0.875000 0
  0.875000   0.125000 0
  0.500000   0.250000 0
  0.625000   0.500000 0
  0.250000   0.625000 0
  0.000000   0.625000 0
  0.375000   0.500000 0
  0.375000   0.000000 0
  0.000000   0.125000 0
  0.125000   0.875000 0
  0.875000   1.000000 0
  0.750000   0.250000 0
  0.375000   0.375000 0
  0.250000   0.375000 0
  0.625000   0.750000 0
  0.125000   0.125000 0
  0.500000   0.000000 0
  0.250000   0.875000 0
  0.125000   0.500000 0
  0.500000   0.375000 0
  0.125000   0.000000 0
  0.250000   0.750000 0
  0.250000   0.500000 0
  0.000000   0.875000 0
  0.875000   0.625000 0
  0.500000   0.750000 0
  0.750000   0.625000 0
  0.250000   0.000000 0
  0.375000   0.750000 0
  0.750000   0.875000 0
  0.625000   0.125000 0
  0.250000   0.250000 0
  0.375000   1.000000 0
  0.375000   0.250000 0
  0.000000   0.375000 0
  0.500000   1.000000 0
  0.875000   0.750000 0
  0.750000   0.000000 0
  0.375000   0.125000 0
  0.500000   0.875000 0
  0.000000   0.000000 0
  0.125000   0.750000 0
  0.500000   0.625000 0
  0.125000   0.250000 0
  0.500000   0.125000 0
  0.250000   1.000000 0
  0.250000   0.125000 0
  0.000000   1.000000 0
  0.375000   0.875000 0
  0.000000   0.750000 0
  0.375000   0.625000 0
  0.000000   0.250000 0
  0.125000   1.000000 0
  1.000000   0.375000 0
  0.500000   0.500000 0
  0.875000   0.375000 0
CELLS 64 320
4 56 71 58 63
4 27 58 69 63
4 41 69 32 63
4 76 33 68 40
4 27 44 58 37
4 79 31 44 37
4 56 38 68 21
4 56 58 38 37
4 52 32 71 63
4 47 38 31 37
4 76 68 59 21
4 22 59 43 21
4 65 45 33 40
4 47 43 38 21
4 52 71 45 40
4 56 68 71 40
4 74 30 66 23
4 46 66 29 23
4 22 43 30 23
4 72 48 77 34
4 46 53 42 73
4 50 64 53 73
4 70 42 57 73
4 74 66 48 34
4 46 42 66 34
4 47 29 43 23
4 70 77 42 34
4 60 57 64 73
4 79 67 31 75
4 47 31 29 75
4 50 53 67 75
4 46 29 53 75
4 10 78 6 80
4 36 6 1 80
4 15 1 12 80
4 36 4 6 26
4 14 12 78 80
4 2 17 9 26
4 36 18 4 55
4 15 28 1 11
4 62 4 20 55
4 10 6 17 26
4 27 18 44 11
4 62 9 4 26
4 27 69 18 55
4 36 1 18 11
4 41 20 69 55
4 79 44 28 11
4 16 24 54 7
4 19 54 39 7
4 50 39 64 7
4 8 25 61 3
4 60 64 24 7
4 79 28 67 13
4 19 51 61 49
4 8 61 0 49
4 15 51 28 13
4 19 39 51 13
4 50 67 39 13
4 19 61 54 3
4 14 0 12 49
4 5 35 25 3
4 15 12 51 49
4 16 54 35 3
CELL_TYPES 64
8
8
8
8
8
8
8
8
8
8
8
8
8
8
8
8
8
8
8
8
8
8
8
8
8
8
8
8
8
8
8
8
8
8
8
8
8
8
8
8
8
8
8
8
8
8
8
8
8
8
8
8
8
8
8
8
8
8
8
8
8
8
8
8
CELL_DATA 64
VECTORS vector_value float
0.255282 -0.685916 0
1.10609 -1.86952 0
0.0490358 -0.443864 0
-0.338605 -1.22035 0
-0.357057 -1.38364 0
-0.147324 -0.618958 0
-0.408152 -2.49775 0
0.0855441 -0.909286 0
3.52855e-05 -0.700619 0
-0.27882 -1.44948 0
-0.288592 -0.34351 0
0.000898894 -0.256763 0
-0.357383 -2.1051 0
-0.579562 -1.96966 0
-0.0732353 -0.269775 0
-0.429342 -1.20453 0
0.123038 -0.468342 0
0.625654 -1.2625 0
0.0033239 -0.257879 0
0.0502313 -0.985349 0
0.253654 -1.21378 0
0.10589 -0.535119 0
-0.559947 -1.72332 0
0.194974 -0.575358 0
0.164706 -2.0187 0
-0.146222 -0.703102 0
0.0939589 -0.840613 0
-0.605014 -0.941385 0
-0.219812 -0.804067 0
-0.613995 -2.40093 0
0.278939 -1.15797 0
0.633068 -1.43943 0
-0.00349226 -0.0898227 0
-0.0127915 -0.0500318 0
-0.0499909 -0.0603235 0
0.00157267 -0.0540805 0
-0.0267433 -0.129613 0
0.00256644 -0.0868044 0
0.0226945 -1.00197 0
-0.124461 -1.38202 0
0.306658 -1.50697 0
-0.00182746 -0.0827423 0
-0.251816 -1.49116 0
0.0453329 -0.127774 0
0.511283 -1.88088 0
-0.115535 -1.23479 0
0.640658 -2.7591 0
-0.422501 -2.13318 0
0.00699392 -0.692588 0
-0.617669 -1.08963 0
-0.0403908 -1.04171 0
-0.192038 -0.572277 0
-0.353342 -0.606682 0
-0.208296 -1.93323 0
-0.174564 -0.223243 0
-0.0450371 -0.296528 0
-0.319521 -1.52791 0
-0.639989 -1.82387 0
-0.167724 -1.32811 0
-0.97358 -0.953427 0
-0.0613172 -0.192779 0
-0.128281 -1.19758 0
-0.188094 -0.180108 0
0.0103614 -1.01248 0
