# vtk DataFile Version 2.0
Unstructured Grid by M++
ASCII
DATASET UNSTRUCTURED_GRID
POINTS 81 float
  1.000000   0.625000 0
  0.750000   0.375000 0
  1.000000   0.000000 0
  0.875000   0.875000 0
  0.750000   0.125000 0
  1.000000   1.000000 0
  0.875000   0.250000 0
  0.625000   0.875000 0
  1.000000   0.750000 0
  0.875000   0.000000 0
  1.000000   0.250000 0
  0.625000   0.375000 0
  0.875000   0.500000 0
  0.625000   0.625000 0
  1.000000   0.500000 0
  0.750000   0.500000 0
  0.750000   1.000000 0
  1.000000   0.125000 0
  0.625000   0.250000 0
  0.750000   0.750000 0
  0.625000   0.000000 0
  0.125000   0.375000 0
  0.000000   0.500000 0
  0.125000   0.625000 0
  0.625000   1.000000 0
  1.000000   0.875000 0
  0.875000   0.125000 0
  0.500000   0.250000 0
  0.625000   0.500000 0
  0.250000   0.625000 0
  0.000000   0.625000 0
  0.375000   0.500000 0
  0.375000   0.000000 0
  0.000000   0.125000 0
  0.125000   0.875000 0
  0.875000   1.000000 0
  0.750000   0.250000 0
  0.375000   0.375000 0
  0.250000   0.375000 0
  0.625000   0.750000 0
  0.125000   0.125000 0
  0.500000   0.000000 0
  0.250000   0.875000 0
  0.125000   0.500000 0
  0.500000   0.375000 0
  0.125000   0.000000 0
  0.250000   0.750000 0
  0.250000   0.500000 0
  0.000000   0.875000 0
  0.875000   0.625000 0
  0.500000   0.750000 0
  0.750000   0.625000 0
  0.250000   0.000000 0
  0.375000   0.750000 0
  0.750000   0.875000 0
  0.625000   0.125000 0
  0.250000   0.250000 0
  0.375000   1.000000 0
  0.375000   0.250000 0
  0.000000   0.375000 0
  0.500000   1.000000 0
  0.875000   0.750000 0
  0.750000   0.000000 0
  0.375000   0.125000 0
  0.500000   0.875000 0
  0.000000   0.000000 0
  0.125000   0.750000 0
  0.500000   0.625000 0
  0.125000   0.250000 0
  0.500000   0.125000 0
  0.250000   1.000000 0
  0.250000   0.125000 0
  0.000000   1.000000 0
  0.375000   0.875000 0
  0.000000   0.750000 0
  0.375000   0.625000 0
  0.000000   0.250000 0
  0.125000   1.000000 0
  1.000000   0.375000 0
  0.500000   0.500000 0
  0.875000   0.375000 0
CELLS 64 320
4 56 71 58 63
4 27 58 69 63
4 41 69 32 63
4 76 33 68 40
4 27 44 58 37
4 79 31 44 37
4 56 38 68 21
4 56 58 38 37
4 52 32 71 63
4 47 38 31 37
4 76 68 59 21
4 22 59 43 21
4 65 45 33 40
4 47 43 38 21
4 52 71 45 40
4 56 68 71 40
4 74 30 66 23
4 46 66 29 23
4 22 43 30 23
4 72 48 77 34
4 46 53 42 73
4 50 64 53 73
4 70 42 57 73
4 74 66 48 34
4 46 42 66 34
4 47 29 43 23
4 70 77 42 34
4 60 57 64 73
4 79 67 31 75
4 47 31 29 75
4 50 53 67 75
4 46 29 53 75
4 10 78 6 80
4 36 6 1 80
4 15 1 12 80
4 36 4 6 26
4 14 12 78 80
4 2 17 9 26
4 36 18 4 55
4 15 28 1 11
4 62 4 20 55
4 10 6 17 26
4 27 18 44 11
4 62 9 4 26
4 27 69 18 55
4 36 1 18 11
4 41 20 69 55
4 79 44 28 11
4 16 24 54 7
4 19 54 39 7
4 50 39 64 7
4 8 25 61 3
4 60 64 24 7
4 79 28 67 13
4 19 51 61 49
4 8 61 0 49
4 15 51 28 13
4 19 39 51 13
4 50 67 39 13
4 19 61 54 3
4 14 0 12 49
4 5 35 25 3
4 15 12 51 49
4 16 54 35 3
CELL_TYPES 64
8
8
8
8
8
8
8
8
8
8
8
8
8
8
8
8
8
8
8
8
8
8
8
8
8
8
8
8
8
8
8
8
8
8
8
8
8
8
8
8
8
8
8
8
8
8
8
8
8
8
8
8
8
8
8
8
8
8
8
8
8
8
8
8
CELL_DATA 64
VECTORS vector_value float
0.57405 -1.75513 0
0.319439 -1.82732 0
0.513536 -2.61381 0
0.0376856 -0.191362 0
0.219684 -1.52128 0
0.0208209 -0.566413 0
0.308028 -0.54745 0
0.497719 -1.7765 0
0.266529 -0.911917 0
0.398347 -1.62394 0
0.109753 -0.412141 0
0.260073 -0.91851 0
0.0126487 -0.145546 0
0.610829 -0.815463 0
0.0370928 -0.282528 0
0.191192 -0.358459 0
-0.178975 -0.87879 0
-0.296603 -0.46129 0
-0.0183166 -0.962674 0
0.247061 -0.571026 0
-0.0190404 -2.11519 0
0.399564 -1.86669 0
0.39883 -1.75696 0
-0.040595 -0.535142 0
-0.150516 -0.41181 0
-0.233507 -0.851202 0
0.752855 -0.827956 0
-0.473872 -1.28907 0
-0.176213 -0.95872 0
-0.327579 -1.20246 0
0.115733 -0.962948 0
-0.128467 -1.6532 0
0.0547764 -2.36837 0
0.000314184 -0.579022 0
0.452998 -1.43204 0
-0.271056 -0.918865 0
0.429983 -1.59411 0
-0.037134 -1.76367 0
-0.0464976 -0.64719 0
-0.154942 -0.622544 0
-0.0286444 -0.259973 0
-0.255504 -1.965 0
-0.0645757 -0.323823 0
-0.00399698 -1.21907 0
0.115884 -0.336666 0
-0.0116632 -0.471419 0
-0.0763936 -0.803481 0
-0.241144 -0.42698 0
-0.474496 -0.416745 0
-0.0526921 -0.26357 0
0.23419 -0.967957 0
-0.0895768 -1.67622 0
-0.888076 -1.20512 0
0.166993 -0.3599 0
-0.27632 -0.802974 0
-0.257256 -1.09364 0
0.674379 -1.02996 0
0.702512 -0.978899 0
0.884847 -1.16826 0
-0.0185467 -0.163422 0
0.185463 -0.995097 0
0.344896 -1.53324 0
0.721577 -1.63999 0
0.267572 -0.399875 0
