# vtk DataFile Version 2.0
Unstructured Grid by M++
ASCII
DATASET UNSTRUCTURED_GRID
POINTS 289 float
  0.562500   1.000000 0
  0.562500   0.625000 0
  0.625000   1.000000 0
  0.562500   0.937500 0
  0.562500   0.562500 0
  0.625000   0.937500 0
  0.562500   0.875000 0
  0.625000   0.750000 0
  0.625000   0.625000 0
  0.562500   0.812500 0
  0.562500   0.750000 0
  0.562500   0.687500 0
  0.625000   0.875000 0
  0.625000   0.812500 0
  0.625000   0.687500 0
  0.687500   0.125000 0
  0.875000   0.062500 0
  0.625000   0.125000 0
  0.625000   0.187500 0
  0.625000   0.250000 0
  0.812500   0.187500 0
  1.000000   0.125000 0
  0.687500   0.187500 0
  0.750000   0.125000 0
  0.937500   0.062500 0
  0.937500   0.125000 0
  0.750000   0.187500 0
  0.812500   0.062500 0
  0.812500   0.125000 0
  0.875000   0.687500 0
  0.187500   0.250000 0
  0.437500   0.250000 0
  0.375000   0.187500 0
  0.812500   0.625000 0
  0.125000   0.187500 0
  0.937500   0.750000 0
  0.250000   0.312500 0
  0.500000   0.312500 0
  0.625000   0.062500 0
  0.437500   0.500000 0
  0.375000   0.125000 0
  0.437500   0.187500 0
  0.437500   0.437500 0
  0.437500   0.375000 0
  0.875000   0.875000 0
  0.187500   0.375000 0
  0.687500   0.562500 0
  0.687500   0.625000 0
  0.000000   0.125000 0
  0.937500   0.625000 0
  0.250000   0.125000 0
  0.375000   0.062500 0
  0.375000   0.000000 0
  0.812500   0.500000 0
  0.125000   0.000000 0
  0.937500   0.937500 0
  0.250000   0.437500 0
  0.687500   0.875000 0
  0.687500   0.937500 0
  0.000000   0.437500 0
  0.500000   0.500000 0
  0.500000   0.437500 0
  0.750000   0.937500 0
  0.750000   1.000000 0
  0.062500   0.500000 0
  1.000000   1.000000 0
  0.312500   0.500000 0
  0.875000   0.562500 0
  0.187500   0.062500 0
  0.437500   0.125000 0
  0.437500   0.062500 0
  0.500000   0.375000 0
  0.937500   0.812500 0
  0.937500   0.875000 0
  0.250000   0.375000 0
  0.687500   0.812500 0
  0.000000   0.375000 0
  0.750000   0.562500 0
  0.062500   0.125000 0
  1.000000   0.562500 0
  1.000000   0.625000 0
  0.312500   0.125000 0
  0.562500   0.125000 0
  0.437500   0.000000 0
  0.875000   0.437500 0
  0.875000   0.500000 0
  0.187500   0.000000 0
  0.937500   0.562500 0
  0.937500   0.500000 0
  0.250000   0.062500 0
  0.687500   0.500000 0
  0.000000   0.062500 0
  0.500000   0.062500 0
  1.000000   0.875000 0
  1.000000   0.937500 0
  0.312500   0.437500 0
  0.750000   0.875000 0
  0.062500   0.437500 0
  0.812500   0.937500 0
  0.125000   0.500000 0
  0.375000   0.500000 0
  0.625000   0.562500 0
  0.625000   0.500000 0
  0.437500   0.312500 0
  0.875000   0.812500 0
  0.875000   0.750000 0
  0.187500   0.312500 0
  0.812500   0.687500 0
  0.812500   0.750000 0
  0.125000   0.250000 0
  0.375000   0.250000 0
  1.000000   0.687500 0
  0.312500   0.187500 0
  0.750000   0.687500 0
  0.750000   0.625000 0
  0.062500   0.187500 0
  0.562500   0.250000 0
  0.562500   0.187500 0
  0.375000   1.000000 0
  0.500000   0.562500 0
  0.500000   0.250000 0
  0.750000   0.250000 0
  0.500000   0.125000 0
  0.500000   0.187500 0
  1.000000   0.187500 0
  0.625000   0.375000 0
  0.875000   0.375000 0
  1.000000   0.437500 0
  0.312500   0.000000 0
  0.562500   0.000000 0
  0.812500   0.000000 0
  0.250000   0.687500 0
  0.000000   0.687500 0
  0.500000   1.000000 0
  0.250000   1.000000 0
  0.000000   1.000000 0
  0.437500   0.687500 0
  0.437500   0.625000 0
  0.187500   0.625000 0
  0.687500   0.750000 0
  0.000000   0.312500 0
  0.000000   0.250000 0
  0.375000   0.375000 0
  0.375000   0.312500 0
  0.812500   0.812500 0
  0.125000   0.312500 0
  0.875000   0.625000 0
  0.187500   0.187500 0
  0.187500   0.125000 0
  0.937500   1.000000 0
  0.250000   0.562500 0
  0.250000   0.500000 0
  0.687500   1.000000 0
  0.000000   0.500000 0
  0.687500   0.687500 0
  0.000000   0.187500 0
  0.937500   0.687500 0
  0.250000   0.250000 0
  0.250000   0.187500 0
  0.187500   0.687500 0
  0.000000   0.750000 0
  0.250000   0.750000 0
  0.125000   0.625000 0
  0.750000   0.750000 0
  0.062500   0.250000 0
  0.875000   0.937500 0
  0.187500   0.500000 0
  0.187500   0.437500 0
  0.812500   0.562500 0
  0.125000   0.125000 0
  0.125000   0.062500 0
  0.375000   0.625000 0
  0.375000   0.687500 0
  1.000000   0.750000 0
  0.312500   0.250000 0
  0.312500   0.312500 0
  0.812500   0.312500 0
  0.562500   0.312500 0
  0.375000   0.750000 0
  0.500000   0.625000 0
  0.250000   0.625000 0
  0.312500   0.687500 0
  0.750000   0.812500 0
  0.062500   0.312500 0
  0.062500   0.375000 0
  1.000000   0.812500 0
  0.312500   0.375000 0
  0.562500   0.375000 0
  0.687500   0.437500 0
  0.000000   0.000000 0
  0.500000   0.000000 0
  0.937500   0.437500 0
  0.250000   0.000000 0
  0.375000   0.437500 0
  0.812500   0.875000 0
  0.125000   0.375000 0
  0.125000   0.437500 0
  0.625000   0.437500 0
  1.000000   0.500000 0
  0.312500   0.062500 0
  0.750000   0.500000 0
  0.062500   0.000000 0
  0.062500   0.062500 0
  0.562500   0.062500 0
  0.062500   0.750000 0
  0.312500   0.750000 0
  0.312500   0.625000 0
  0.312500   0.562500 0
  0.062500   0.562500 0
  0.187500   1.000000 0
  0.437500   0.562500 0
  0.875000   1.000000 0
  0.187500   0.562500 0
  0.500000   0.937500 0
  0.250000   0.937500 0
  0.312500   1.000000 0
  0.125000   0.750000 0
  0.125000   0.687500 0
  1.000000   0.000000 0
  0.000000   0.937500 0
  0.000000   0.875000 0
  0.875000   0.125000 0
  0.875000   0.187500 0
  0.062500   0.812500 0
  0.312500   0.812500 0
  0.000000   0.812500 0
  0.000000   0.625000 0
  0.000000   0.562500 0
  0.062500   1.000000 0
  0.062500   0.937500 0
  0.937500   0.187500 0
  0.937500   0.250000 0
  0.062500   0.687500 0
  0.062500   0.625000 0
  0.125000   1.000000 0
  1.000000   0.250000 0
  1.000000   0.312500 0
  0.062500   0.875000 0
  0.125000   0.812500 0
  0.375000   0.812500 0
  0.125000   0.875000 0
  0.375000   0.937500 0
  0.375000   0.875000 0
  0.187500   0.750000 0
  0.187500   0.812500 0
  0.437500   0.812500 0
  0.187500   0.875000 0
  0.437500   0.875000 0
  0.375000   0.562500 0
  0.812500   1.000000 0
  0.125000   0.562500 0
  0.437500   1.000000 0
  0.437500   0.937500 0
  0.187500   0.937500 0
  0.125000   0.937500 0
  0.500000   0.687500 0
  0.500000   0.750000 0
  0.500000   0.812500 0
  0.250000   0.812500 0
  0.250000   0.875000 0
  0.500000   0.875000 0
  0.437500   0.750000 0
  0.312500   0.875000 0
  0.312500   0.937500 0
  0.687500   0.250000 0
  0.687500   0.312500 0
  0.937500   0.312500 0
  0.875000   0.250000 0
  0.625000   0.000000 0
  0.875000   0.000000 0
  0.687500   0.375000 0
  0.937500   0.375000 0
  0.875000   0.312500 0
  0.625000   0.312500 0
  0.687500   0.000000 0
  0.937500   0.000000 0
  0.750000   0.312500 0
  0.750000   0.375000 0
  1.000000   0.375000 0
  0.812500   0.250000 0
  0.562500   0.437500 0
  0.562500   0.500000 0
  0.687500   0.062500 0
  0.750000   0.437500 0
  0.750000   0.000000 0
  0.750000   0.062500 0
  1.000000   0.062500 0
  0.812500   0.375000 0
  0.812500   0.437500 0
CELLS 256 1280
4 169 170 148 68
4 151 166 56 167
4 195 45 196 167
4 54 170 201 202
4 109 34 30 147
4 40 32 81 112
4 192 89 86 68
4 48 91 78 202
4 99 64 196 97
4 71 43 37 103
4 74 186 56 95
4 109 164 34 115
4 50 81 158 112
4 122 69 92 70
4 195 145 45 106
4 110 143 174 175
4 157 30 158 147
4 40 69 32 41
4 50 158 148 147
4 141 155 164 115
4 122 123 69 41
4 142 186 143 175
4 60 39 61 42
4 40 51 69 70
4 120 31 123 41
4 157 174 36 175
4 50 148 89 68
4 48 78 155 115
4 52 83 51 70
4 151 56 66 95
4 71 61 43 42
4 169 148 34 147
4 100 193 39 42
4 40 81 51 199
4 110 174 32 112
4 109 30 145 106
4 100 66 193 95
4 169 34 78 115
4 190 92 83 70
4 50 89 81 199
4 54 86 170 68
4 74 56 45 167
4 142 143 43 103
4 153 59 64 97
4 99 196 166 167
4 169 78 170 202
4 142 193 186 95
4 192 128 89 199
4 74 45 36 106
4 110 31 143 103
4 76 184 59 97
4 142 43 193 42
4 52 51 128 199
4 189 201 91 202
4 120 37 31 103
4 74 36 186 175
4 195 196 184 97
4 141 164 140 183
4 157 158 174 112
4 109 145 164 183
4 195 184 145 183
4 110 32 31 41
4 157 36 30 106
4 76 140 184 183
4 171 172 206 181
4 178 172 261 136
4 256 261 255 136
4 256 257 261 245
4 180 150 206 207
4 60 119 39 210
4 118 215 241 263
4 178 205 172 181
4 216 243 238 244
4 162 217 233 232
4 180 206 131 181
4 179 137 119 210
4 216 204 217 232
4 220 237 219 229
4 216 217 243 159
4 259 258 262 224
4 240 254 237 229
4 153 64 227 208
4 161 205 258 224
4 240 237 238 223
4 226 227 233 208
4 234 228 254 229
4 171 248 137 210
4 160 132 204 232
4 180 131 138 159
4 133 251 213 252
4 171 206 248 207
4 162 138 217 159
4 161 258 243 244
4 220 225 237 223
4 151 150 166 212
4 260 247 257 245
4 259 262 214 263
4 151 66 150 207
4 234 254 209 253
4 162 233 250 208
4 242 241 262 263
4 171 137 172 136
4 161 243 131 159
4 160 204 225 223
4 161 131 205 181
4 179 255 137 136
4 216 238 204 223
4 100 39 248 210
4 260 213 247 252
4 226 233 132 232
4 134 214 215 263
4 180 138 150 212
4 178 261 239 245
4 259 246 258 244
4 178 239 205 224
4 240 238 246 244
4 242 262 239 224
4 99 250 64 208
4 240 246 254 253
4 242 239 247 245
4 135 219 228 229
4 99 166 250 212
4 259 214 246 253
4 118 241 251 252
4 100 248 66 207
4 134 209 214 253
4 162 250 138 212
4 242 247 241 252
4 71 187 61 280
4 102 281 197 280
4 122 92 82 203
4 17 18 82 117
4 122 82 123 117
4 19 264 273 265
4 267 279 222 20
4 125 273 270 265
4 267 272 279 176
4 19 116 18 117
4 21 25 286 24
4 23 28 26 20
4 23 285 28 27
4 218 286 275 24
4 85 53 84 288
4 235 236 231 266
4 221 222 28 20
4 267 222 231 230
4 268 38 129 203
4 125 270 197 188
4 126 287 272 176
4 277 270 276 265
4 267 231 272 266
4 125 197 187 280
4 190 129 92 203
4 277 276 287 176
4 19 18 264 22
4 17 82 38 203
4 102 197 90 188
4 126 84 287 288
4 284 130 285 27
4 121 276 264 265
4 71 37 187 177
4 120 123 116 117
4 198 88 127 191
4 221 16 25 24
4 23 26 15 22
4 121 279 276 176
4 235 231 124 230
4 125 187 273 177
4 278 271 236 266
4 277 287 283 288
4 284 285 274 282
4 278 127 271 191
4 269 275 16 24
4 200 283 53 288
4 23 15 285 282
4 121 26 279 20
4 21 124 25 230
4 19 273 116 177
4 200 90 283 188
4 126 271 84 191
4 269 16 130 27
4 17 38 15 282
4 221 25 222 230
4 121 264 26 22
4 120 116 37 177
4 60 61 281 280
4 277 283 270 188
4 126 272 271 266
4 268 274 38 282
4 85 84 88 191
4 17 15 18 22
4 221 28 16 27
4 93 94 73 55
4 85 88 67 87
4 80 49 79 87
4 44 104 73 72
4 146 33 67 168
4 211 165 149 55
4 8 47 14 154
4 105 104 108 144
4 105 108 29 107
4 7 139 13 75
4 44 165 194 98
4 200 53 77 168
4 8 1 101 4
4 2 5 152 58
4 260 6 213 3
4 105 35 104 72
4 96 57 182 75
4 7 14 139 154
4 146 29 33 107
4 7 13 10 9
4 12 13 57 75
4 85 67 53 168
4 44 73 165 55
4 63 152 62 58
4 8 101 47 46
4 96 182 194 144
4 60 281 119 4
4 12 5 6 3
4 173 185 35 72
4 65 149 94 55
4 146 67 49 87
4 114 113 47 154
4 163 108 182 144
4 12 6 13 9
4 173 35 111 156
4 163 182 139 75
4 260 257 6 9
4 105 29 35 156
4 163 139 113 154
4 256 10 257 9
4 146 49 29 156
4 163 113 108 107
4 80 111 49 156
4 102 101 281 4
4 12 57 5 58
4 44 194 104 144
4 96 194 62 98
4 2 0 5 3
4 93 73 185 72
4 179 119 1 4
4 200 77 90 46
4 114 33 113 107
4 7 10 14 11
4 96 62 57 58
4 133 213 0 3
4 102 90 101 46
4 256 255 10 11
4 63 62 249 98
4 114 47 77 46
4 179 1 255 11
4 211 249 165 98
4 114 77 33 168
4 198 79 88 87
4 8 14 1 11
CELL_TYPES 256
8
8
8
8
8
8
8
8
8
8
8
8
8
8
8
8
8
8
8
8
8
8
8
8
8
8
8
8
8
8
8
8
8
8
8
8
8
8
8
8
8
8
8
8
8
8
8
8
8
8
8
8
8
8
8
8
8
8
8
8
8
8
8
8
8
8
8
8
8
8
8
8
8
8
8
8
8
8
8
8
8
8
8
8
8
8
8
8
8
8
8
8
8
8
8
8
8
8
8
8
8
8
8
8
8
8
8
8
8
8
8
8
8
8
8
8
8
8
8
8
8
8
8
8
8
8
8
8
8
8
8
8
8
8
8
8
8
8
8
8
8
8
8
8
8
8
8
8
8
8
8
8
8
8
8
8
8
8
8
8
8
8
8
8
8
8
8
8
8
8
8
8
8
8
8
8
8
8
8
8
8
8
8
8
8
8
8
8
8
8
8
8
8
8
8
8
8
8
8
8
8
8
8
8
8
8
8
8
8
8
8
8
8
8
8
8
8
8
8
8
8
8
8
8
8
8
8
8
8
8
8
8
8
8
8
8
8
8
8
8
8
8
8
8
8
8
8
8
8
8
8
8
8
8
8
8
CELL_DATA 256
VECTORS vector_value float
0.657602 -1.25179 0
-0.78631 -2.56182 0
-0.846375 -1.11789 0
0.0666293 -0.766532 0
-0.313934 -1.60472 0
0.184099 -0.348151 0
0.255835 -1.58165 0
0.170607 -0.497836 0
-0.0258209 -0.0793149 0
0.00836747 -0.0540128 0
-0.520093 -1.79385 0
-0.263616 -1.55748 0
0.477603 -1.18273 0
0.00908558 -0.0838759 0
-0.92417 -1.8098 0
-0.0621486 -0.258467 0
-0.160481 -1.5375 0
0.0320778 -0.110563 0
0.822137 -1.60156 0
-0.15403 -1.06287 0
-0.00176918 -0.0582971 0
-0.108479 -0.40208 0
0.0776438 -0.0847692 0
0.0818359 -0.193623 0
0.00256215 -0.0510944 0
-0.232137 -1.12394 0
0.827685 -1.74285 0
0.23395 -0.982495 0
0.0265228 -0.254163 0
-0.850835 -3.06515 0
0.0508278 -0.0886397 0
0.899815 -1.63886 0
0.0620769 -0.202544 0
0.26162 -0.670085 0
-0.0178787 -0.197563 0
-0.892576 -1.65471 0
-0.0957385 -0.854436 0
0.548566 -1.23723 0
0.00359236 -0.127738 0
0.610532 -1.63173 0
0.192073 -1.27414 0
-1.27612 -3.13983 0
-0.0159328 -0.13123 0
-0.0050343 -0.0377769 0
-0.133472 -0.383658 0
0.545973 -1.095 0
-0.125831 -0.627012 0
0.218866 -2.1976 0
-0.613838 -2.37824 0
-0.00816371 -0.0933341 0
-0.0184741 -0.0651894 0
0.012458 -0.163936 0
0.0392918 -0.716791 0
0.0100255 -0.263008 0
0.002577 -0.0456847 0
-0.304007 -1.42612 0
-0.145465 -0.210746 0
-0.251731 -0.651306 0
-0.0115422 -1.06589 0
-0.805438 -1.38001 0
-0.489447 -0.738266 0
0.000647024 -0.0765274 0
-0.576657 -1.94679 0
-0.0985782 -0.224051 0
-0.260695 -1.63682 0
-0.0759942 -0.820675 0
0.0915789 -0.344876 0
-0.0330058 -0.50587 0
-0.282573 -3.28687 0
0.0699854 -0.0961175 0
0.0889635 -0.615456 0
-0.00711272 -1.54759 0
0.765355 -1.02788 0
0.0518268 -0.100317 0
-0.0497418 -3.2457 0
0.0962865 -0.164556 0
0.0420002 -0.112978 0
0.187103 -0.559441 0
0.214521 -0.591694 0
0.140919 -1.15594 0
0.510504 -1.58336 0
-0.00109682 -0.0297634 0
0.718238 -1.97262 0
0.535973 -0.899026 0
0.00688305 -0.0373745 0
-0.00613649 -1.29172 0
-0.0120125 -0.346968 0
0.0172509 -0.106585 0
0.173373 -1.44101 0
0.247832 -1.35151 0
-0.211195 -1.43274 0
0.1079 -0.345938 0
1.23387 -1.90093 0
0.0956156 -0.308718 0
-0.197336 -1.96094 0
-0.190181 -0.871872 0
-0.120179 -0.825735 0
-0.329538 -3.49717 0
-0.346431 -1.15949 0
0.0271705 -0.0649824 0
-0.197348 -0.482367 0
-0.0653935 -0.535569 0
0.466295 -1.7062 0
0.0432132 -0.158274 0
0.343821 -2.54719 0
0.116888 -0.263639 0
0.279396 -0.37148 0
0.0323042 -0.233945 0
-0.169433 -1.1987 0
0.0191083 -0.0674459 0
-0.25699 -0.758218 0
-0.106106 -1.86699 0
-0.209641 -0.947426 0
0.910579 -1.32877 0
0.0302028 -1.03289 0
1.28637 -1.75441 0
-0.310572 -0.798194 0
-0.00728323 -0.0553151 0
0.183551 -1.57161 0
-0.328342 -0.816555 0
0.115355 -0.878697 0
-0.0357232 -0.321358 0
-0.0572638 -0.725479 0
0.364733 -0.986773 0
-0.141961 -1.15886 0
-0.467525 -0.963658 0
0.0508989 -0.282674 0
-0.319564 -0.918713 0
0.0941088 -0.100327 0
0.19438 -0.634717 0
-0.0226839 -0.0579959 0
-0.0119515 -0.0523365 0
-0.00881782 -0.0404542 0
0.13141 -0.249417 0
-0.724195 -3.39924 0
0.406622 -0.581471 0
-0.759799 -2.93308 0
0.0127546 -0.0630108 0
0.0767739 -0.494438 0
-0.033122 -2.67987 0
0.0290899 -2.52959 0
0.0841702 -0.729233 0
0.222267 -1.10464 0
-0.165829 -0.682709 0
-0.11213 -3.36859 0
-0.450009 -2.02697 0
-0.00320263 -0.0410951 0
0.371118 -0.648931 0
-0.231259 -1.67027 0
0.480244 -0.809093 0
-0.823287 -2.7769 0
0.296153 -0.48845 0
-0.00632146 -0.0606733 0
0.280478 -0.862579 0
0.0698952 -0.139592 0
-0.0244043 -0.0534207 0
0.276789 -0.691673 0
0.0187565 -1.13423 0
-0.00208081 -2.2718 0
0.413015 -0.666327 0
0.0258153 -0.0537898 0
-0.00261726 -0.0405988 0
-0.611455 -2.9406 0
0.194506 -1.60592 0
0.0020401 -0.456499 0
0.271607 -1.39393 0
-0.073327 -0.400991 0
0.107071 -0.193161 0
-0.190229 -0.966508 0
0.204 -0.488835 0
-0.0356208 -0.590766 0
-0.385256 -1.559 0
0.15126 -1.70101 0
0.180662 -0.347698 0
-0.0486065 -0.467086 0
-0.218849 -2.29912 0
0.0290409 -0.388429 0
0.0300439 -0.104965 0
0.246676 -0.744505 0
-0.649296 -3.54865 0
0.0962078 -3.32525 0
-0.0120725 -0.098834 0
-0.0483855 -1.74062 0
0.1799 -0.476843 0
0.00633782 -0.0384193 0
0.12029 -0.208341 0
0.362921 -0.824481 0
-0.529787 -3.69933 0
-0.00170555 -0.0985381 0
-0.327382 -2.05836 0
-0.00574986 -0.113318 0
0.198555 -3.52593 0
-0.0434083 -0.224928 0
0.205042 -1.42747 0
0.604806 -2.79892 0
0.0499981 -0.642096 0
1.24322 -0.905156 0
-0.877908 -0.920969 0
0.641248 -1.4173 0
0.189289 -0.52311 0
0.544758 -0.488242 0
0.390559 -2.13941 0
-0.25282 -0.745115 0
0.44691 -0.621951 0
0.0838307 -0.641701 0
-0.486713 -1.40514 0
0.108274 -0.919205 0
0.148428 -0.713628 0
0.109987 -1.91514 0
0.744666 -1.93584 0
1.84113 -0.674181 0
0.258251 -1.01357 0
0.315113 -2.24809 0
0.405976 -0.806476 0
-0.118591 -0.616138 0
-1.07549 -1.23952 0
0.175461 -0.966059 0
-0.000151313 -0.59829 0
0.103843 -0.210913 0
0.201074 -1.30784 0
0.0445888 -0.264438 0
-0.36157 -0.533794 0
1.16549 -1.16929 0
1.49637 -1.88655 0
0.209134 -0.700335 0
0.243394 -1.26112 0
0.286389 -0.659149 0
0.305226 -2.21463 0
0.0555697 -0.607191 0
0.618529 -0.763519 0
0.944053 -2.67866 0
0.0959056 -0.513511 0
1.39634 -0.952156 0
0.470127 -0.56025 0
0.577598 -1.53976 0
0.104685 -0.750581 0
-0.0165792 -1.89886 0
0.0394503 -0.608095 0
-0.483821 -0.806589 0
0.0258664 -1.22142 0
0.0104398 -0.186501 0
0.114653 -0.187747 0
0.231664 -0.673252 0
2.33392 -1.02243 0
0.38643 -0.694595 0
-0.394809 -1.61593 0
0.132086 -0.867167 0
0.166988 -0.752269 0
0.270273 -0.441945 0
-1.24333 -0.857338 0
0.599178 -1.07865 0
0.200265 -0.213351 0
-1.11051 -0.949136 0
0.946479 -0.76932 0
-0.00408812 -3.40362 0
0.332243 -0.657849 0
