# vtk DataFile Version 2.0
Unstructured Grid by M++
ASCII
DATASET UNSTRUCTURED_GRID
POINTS 289 float
  0.562500   1.000000 0
  0.562500   0.625000 0
  0.625000   1.000000 0
  0.562500   0.937500 0
  0.562500   0.562500 0
  0.625000   0.937500 0
  0.562500   0.875000 0
  0.625000   0.750000 0
  0.625000   0.625000 0
  0.562500   0.812500 0
  0.562500   0.750000 0
  0.562500   0.687500 0
  0.625000   0.875000 0
  0.625000   0.812500 0
  0.625000   0.687500 0
  0.687500   0.125000 0
  0.875000   0.062500 0
  0.625000   0.125000 0
  0.625000   0.187500 0
  0.625000   0.250000 0
  0.812500   0.187500 0
  1.000000   0.125000 0
  0.687500   0.187500 0
  0.750000   0.125000 0
  0.937500   0.062500 0
  0.937500   0.125000 0
  0.750000   0.187500 0
  0.812500   0.062500 0
  0.812500   0.125000 0
  0.875000   0.687500 0
  0.187500   0.250000 0
  0.437500   0.250000 0
  0.375000   0.187500 0
  0.812500   0.625000 0
  0.125000   0.187500 0
  0.937500   0.750000 0
  0.250000   0.312500 0
  0.500000   0.312500 0
  0.625000   0.062500 0
  0.437500   0.500000 0
  0.375000   0.125000 0
  0.437500   0.187500 0
  0.437500   0.437500 0
  0.437500   0.375000 0
  0.875000   0.875000 0
  0.187500   0.375000 0
  0.687500   0.562500 0
  0.687500   0.625000 0
  0.000000   0.125000 0
  0.937500   0.625000 0
  0.250000   0.125000 0
  0.375000   0.062500 0
  0.375000   0.000000 0
  0.812500   0.500000 0
  0.125000   0.000000 0
  0.937500   0.937500 0
  0.250000   0.437500 0
  0.687500   0.875000 0
  0.687500   0.937500 0
  0.000000   0.437500 0
  0.500000   0.500000 0
  0.500000   0.437500 0
  0.750000   0.937500 0
  0.750000   1.000000 0
  0.062500   0.500000 0
  1.000000   1.000000 0
  0.312500   0.500000 0
  0.875000   0.562500 0
  0.187500   0.062500 0
  0.437500   0.125000 0
  0.437500   0.062500 0
  0.500000   0.375000 0
  0.937500   0.812500 0
  0.937500   0.875000 0
  0.250000   0.375000 0
  0.687500   0.812500 0
  0.000000   0.375000 0
  0.750000   0.562500 0
  0.062500   0.125000 0
  1.000000   0.562500 0
  1.000000   0.625000 0
  0.312500   0.125000 0
  0.562500   0.125000 0
  0.437500   0.000000 0
  0.875000   0.437500 0
  0.875000   0.500000 0
  0.187500   0.000000 0
  0.937500   0.562500 0
  0.937500   0.500000 0
  0.250000   0.062500 0
  0.687500   0.500000 0
  0.000000   0.062500 0
  0.500000   0.062500 0
  1.000000   0.875000 0
  1.000000   0.937500 0
  0.312500   0.437500 0
  0.750000   0.875000 0
  0.062500   0.437500 0
  0.812500   0.937500 0
  0.125000   0.500000 0
  0.375000   0.500000 0
  0.625000   0.562500 0
  0.625000   0.500000 0
  0.437500   0.312500 0
  0.875000   0.812500 0
  0.875000   0.750000 0
  0.187500   0.312500 0
  0.812500   0.687500 0
  0.812500   0.750000 0
  0.125000   0.250000 0
  0.375000   0.250000 0
  1.000000   0.687500 0
  0.312500   0.187500 0
  0.750000   0.687500 0
  0.750000   0.625000 0
  0.062500   0.187500 0
  0.562500   0.250000 0
  0.562500   0.187500 0
  0.375000   1.000000 0
  0.500000   0.562500 0
  0.500000   0.250000 0
  0.750000   0.250000 0
  0.500000   0.125000 0
  0.500000   0.187500 0
  1.000000   0.187500 0
  0.625000   0.375000 0
  0.875000   0.375000 0
  1.000000   0.437500 0
  0.312500   0.000000 0
  0.562500   0.000000 0
  0.812500   0.000000 0
  0.250000   0.687500 0
  0.000000   0.687500 0
  0.500000   1.000000 0
  0.250000   1.000000 0
  0.000000   1.000000 0
  0.437500   0.687500 0
  0.437500   0.625000 0
  0.187500   0.625000 0
  0.687500   0.750000 0
  0.000000   0.312500 0
  0.000000   0.250000 0
  0.375000   0.375000 0
  0.375000   0.312500 0
  0.812500   0.812500 0
  0.125000   0.312500 0
  0.875000   0.625000 0
  0.187500   0.187500 0
  0.187500   0.125000 0
  0.937500   1.000000 0
  0.250000   0.562500 0
  0.250000   0.500000 0
  0.687500   1.000000 0
  0.000000   0.500000 0
  0.687500   0.687500 0
  0.000000   0.187500 0
  0.937500   0.687500 0
  0.250000   0.250000 0
  0.250000   0.187500 0
  0.187500   0.687500 0
  0.000000   0.750000 0
  0.250000   0.750000 0
  0.125000   0.625000 0
  0.750000   0.750000 0
  0.062500   0.250000 0
  0.875000   0.937500 0
  0.187500   0.500000 0
  0.187500   0.437500 0
  0.812500   0.562500 0
  0.125000   0.125000 0
  0.125000   0.062500 0
  0.375000   0.625000 0
  0.375000   0.687500 0
  1.000000   0.750000 0
  0.312500   0.250000 0
  0.312500   0.312500 0
  0.812500   0.312500 0
  0.562500   0.312500 0
  0.375000   0.750000 0
  0.500000   0.625000 0
  0.250000   0.625000 0
  0.312500   0.687500 0
  0.750000   0.812500 0
  0.062500   0.312500 0
  0.062500   0.375000 0
  1.000000   0.812500 0
  0.312500   0.375000 0
  0.562500   0.375000 0
  0.687500   0.437500 0
  0.000000   0.000000 0
  0.500000   0.000000 0
  0.937500   0.437500 0
  0.250000   0.000000 0
  0.375000   0.437500 0
  0.812500   0.875000 0
  0.125000   0.375000 0
  0.125000   0.437500 0
  0.625000   0.437500 0
  1.000000   0.500000 0
  0.312500   0.062500 0
  0.750000   0.500000 0
  0.062500   0.000000 0
  0.062500   0.062500 0
  0.562500   0.062500 0
  0.062500   0.750000 0
  0.312500   0.750000 0
  0.312500   0.625000 0
  0.312500   0.562500 0
  0.062500   0.562500 0
  0.187500   1.000000 0
  0.437500   0.562500 0
  0.875000   1.000000 0
  0.187500   0.562500 0
  0.500000   0.937500 0
  0.250000   0.937500 0
  0.312500   1.000000 0
  0.125000   0.750000 0
  0.125000   0.687500 0
  1.000000   0.000000 0
  0.000000   0.937500 0
  0.000000   0.875000 0
  0.875000   0.125000 0
  0.875000   0.187500 0
  0.062500   0.812500 0
  0.312500   0.812500 0
  0.000000   0.812500 0
  0.000000   0.625000 0
  0.000000   0.562500 0
  0.062500   1.000000 0
  0.062500   0.937500 0
  0.937500   0.187500 0
  0.937500   0.250000 0
  0.062500   0.687500 0
  0.062500   0.625000 0
  0.125000   1.000000 0
  1.000000   0.250000 0
  1.000000   0.312500 0
  0.062500   0.875000 0
  0.125000   0.812500 0
  0.375000   0.812500 0
  0.125000   0.875000 0
  0.375000   0.937500 0
  0.375000   0.875000 0
  0.187500   0.750000 0
  0.187500   0.812500 0
  0.437500   0.812500 0
  0.187500   0.875000 0
  0.437500   0.875000 0
  0.375000   0.562500 0
  0.812500   1.000000 0
  0.125000   0.562500 0
  0.437500   1.000000 0
  0.437500   0.937500 0
  0.187500   0.937500 0
  0.125000   0.937500 0
  0.500000   0.687500 0
  0.500000   0.750000 0
  0.500000   0.812500 0
  0.250000   0.812500 0
  0.250000   0.875000 0
  0.500000   0.875000 0
  0.437500   0.750000 0
  0.312500   0.875000 0
  0.312500   0.937500 0
  0.687500   0.250000 0
  0.687500   0.312500 0
  0.937500   0.312500 0
  0.875000   0.250000 0
  0.625000   0.000000 0
  0.875000   0.000000 0
  0.687500   0.375000 0
  0.937500   0.375000 0
  0.875000   0.312500 0
  0.625000   0.312500 0
  0.687500   0.000000 0
  0.937500   0.000000 0
  0.750000   0.312500 0
  0.750000   0.375000 0
  1.000000   0.375000 0
  0.812500   0.250000 0
  0.562500   0.437500 0
  0.562500   0.500000 0
  0.687500   0.062500 0
  0.750000   0.437500 0
  0.750000   0.000000 0
  0.750000   0.062500 0
  1.000000   0.062500 0
  0.812500   0.375000 0
  0.812500   0.437500 0
CELLS 256 1280
4 169 170 148 68
4 151 166 56 167
4 195 45 196 167
4 54 170 201 202
4 109 34 30 147
4 40 32 81 112
4 192 89 86 68
4 48 91 78 202
4 99 64 196 97
4 71 43 37 103
4 74 186 56 95
4 109 164 34 115
4 50 81 158 112
4 122 69 92 70
4 195 145 45 106
4 110 143 174 175
4 157 30 158 147
4 40 69 32 41
4 50 158 148 147
4 141 155 164 115
4 122 123 69 41
4 142 186 143 175
4 60 39 61 42
4 40 51 69 70
4 120 31 123 41
4 157 174 36 175
4 50 148 89 68
4 48 78 155 115
4 52 83 51 70
4 151 56 66 95
4 71 61 43 42
4 169 148 34 147
4 100 193 39 42
4 40 81 51 199
4 110 174 32 112
4 109 30 145 106
4 100 66 193 95
4 169 34 78 115
4 190 92 83 70
4 50 89 81 199
4 54 86 170 68
4 74 56 45 167
4 142 143 43 103
4 153 59 64 97
4 99 196 166 167
4 169 78 170 202
4 142 193 186 95
4 192 128 89 199
4 74 45 36 106
4 110 31 143 103
4 76 184 59 97
4 142 43 193 42
4 52 51 128 199
4 189 201 91 202
4 120 37 31 103
4 74 36 186 175
4 195 196 184 97
4 141 164 140 183
4 157 158 174 112
4 109 145 164 183
4 195 184 145 183
4 110 32 31 41
4 157 36 30 106
4 76 140 184 183
4 171 172 206 181
4 178 172 261 136
4 256 261 255 136
4 256 257 261 245
4 180 150 206 207
4 60 119 39 210
4 118 215 241 263
4 178 205 172 181
4 216 243 238 244
4 162 217 233 232
4 180 206 131 181
4 179 137 119 210
4 216 204 217 232
4 220 237 219 229
4 216 217 243 159
4 259 258 262 224
4 240 254 237 229
4 153 64 227 208
4 161 205 258 224
4 240 237 238 223
4 226 227 233 208
4 234 228 254 229
4 171 248 137 210
4 160 132 204 232
4 180 131 138 159
4 133 251 213 252
4 171 206 248 207
4 162 138 217 159
4 161 258 243 244
4 220 225 237 223
4 151 150 166 212
4 260 247 257 245
4 259 262 214 263
4 151 66 150 207
4 234 254 209 253
4 162 233 250 208
4 242 241 262 263
4 171 137 172 136
4 161 243 131 159
4 160 204 225 223
4 161 131 205 181
4 179 255 137 136
4 216 238 204 223
4 100 39 248 210
4 260 213 247 252
4 226 233 132 232
4 134 214 215 263
4 180 138 150 212
4 178 261 239 245
4 259 246 258 244
4 178 239 205 224
4 240 238 246 244
4 242 262 239 224
4 99 250 64 208
4 240 246 254 253
4 242 239 247 245
4 135 219 228 229
4 99 166 250 212
4 259 214 246 253
4 118 241 251 252
4 100 248 66 207
4 134 209 214 253
4 162 250 138 212
4 242 247 241 252
4 71 187 61 280
4 102 281 197 280
4 122 92 82 203
4 17 18 82 117
4 122 82 123 117
4 19 264 273 265
4 267 279 222 20
4 125 273 270 265
4 267 272 279 176
4 19 116 18 117
4 21 25 286 24
4 23 28 26 20
4 23 285 28 27
4 218 286 275 24
4 85 53 84 288
4 235 236 231 266
4 221 222 28 20
4 267 222 231 230
4 268 38 129 203
4 125 270 197 188
4 126 287 272 176
4 277 270 276 265
4 267 231 272 266
4 125 197 187 280
4 190 129 92 203
4 277 276 287 176
4 19 18 264 22
4 17 82 38 203
4 102 197 90 188
4 126 84 287 288
4 284 130 285 27
4 121 276 264 265
4 71 37 187 177
4 120 123 116 117
4 198 88 127 191
4 221 16 25 24
4 23 26 15 22
4 121 279 276 176
4 235 231 124 230
4 125 187 273 177
4 278 271 236 266
4 277 287 283 288
4 284 285 274 282
4 278 127 271 191
4 269 275 16 24
4 200 283 53 288
4 23 15 285 282
4 121 26 279 20
4 21 124 25 230
4 19 273 116 177
4 200 90 283 188
4 126 271 84 191
4 269 16 130 27
4 17 38 15 282
4 221 25 222 230
4 121 264 26 22
4 120 116 37 177
4 60 61 281 280
4 277 283 270 188
4 126 272 271 266
4 268 274 38 282
4 85 84 88 191
4 17 15 18 22
4 221 28 16 27
4 93 94 73 55
4 85 88 67 87
4 80 49 79 87
4 44 104 73 72
4 146 33 67 168
4 211 165 149 55
4 8 47 14 154
4 105 104 108 144
4 105 108 29 107
4 7 139 13 75
4 44 165 194 98
4 200 53 77 168
4 8 1 101 4
4 2 5 152 58
4 260 6 213 3
4 105 35 104 72
4 96 57 182 75
4 7 14 139 154
4 146 29 33 107
4 7 13 10 9
4 12 13 57 75
4 85 67 53 168
4 44 73 165 55
4 63 152 62 58
4 8 101 47 46
4 96 182 194 144
4 60 281 119 4
4 12 5 6 3
4 173 185 35 72
4 65 149 94 55
4 146 67 49 87
4 114 113 47 154
4 163 108 182 144
4 12 6 13 9
4 173 35 111 156
4 163 182 139 75
4 260 257 6 9
4 105 29 35 156
4 163 139 113 154
4 256 10 257 9
4 146 49 29 156
4 163 113 108 107
4 80 111 49 156
4 102 101 281 4
4 12 57 5 58
4 44 194 104 144
4 96 194 62 98
4 2 0 5 3
4 93 73 185 72
4 179 119 1 4
4 200 77 90 46
4 114 33 113 107
4 7 10 14 11
4 96 62 57 58
4 133 213 0 3
4 102 90 101 46
4 256 255 10 11
4 63 62 249 98
4 114 47 77 46
4 179 1 255 11
4 211 249 165 98
4 114 77 33 168
4 198 79 88 87
4 8 14 1 11
CELL_TYPES 256
8
8
8
8
8
8
8
8
8
8
8
8
8
8
8
8
8
8
8
8
8
8
8
8
8
8
8
8
8
8
8
8
8
8
8
8
8
8
8
8
8
8
8
8
8
8
8
8
8
8
8
8
8
8
8
8
8
8
8
8
8
8
8
8
8
8
8
8
8
8
8
8
8
8
8
8
8
8
8
8
8
8
8
8
8
8
8
8
8
8
8
8
8
8
8
8
8
8
8
8
8
8
8
8
8
8
8
8
8
8
8
8
8
8
8
8
8
8
8
8
8
8
8
8
8
8
8
8
8
8
8
8
8
8
8
8
8
8
8
8
8
8
8
8
8
8
8
8
8
8
8
8
8
8
8
8
8
8
8
8
8
8
8
8
8
8
8
8
8
8
8
8
8
8
8
8
8
8
8
8
8
8
8
8
8
8
8
8
8
8
8
8
8
8
8
8
8
8
8
8
8
8
8
8
8
8
8
8
8
8
8
8
8
8
8
8
8
8
8
8
8
8
8
8
8
8
8
8
8
8
8
8
8
8
8
8
8
8
8
8
8
8
8
8
8
8
8
8
8
8
8
8
8
8
8
8
CELL_DATA 256
VECTORS vector_value float
0.18331 -2.67715 0
0.255291 -2.62006 0
0.345186 -2.64137 0
0.0100112 -3.23071 0
-1.66023 -5.71962 0
0.206422 -0.142376 0
-0.0130227 -0.552888 0
-0.607432 -3.08118 0
-0.211074 -3.64133 0
0.142546 -0.0598231 0
0.304482 -1.06812 0
-1.00944 -2.38922 0
0.123875 -0.226532 0
0.276829 -0.2275 0
1.16068 -4.57428 0
0.740846 -0.300309 0
-0.458395 -2.39033 0
0.346313 -0.254796 0
-0.158879 -0.993749 0
-0.203595 -1.62228 0
0.743333 -0.49 0
0.243804 -0.236365 0
0.00874054 -0.0468048 0
0.105066 -0.0970141 0
0.556944 -0.239339 0
0.535718 -0.857695 0
-0.0559255 -0.714531 0
-0.384009 -2.35962 0
0.0112661 -0.0421135 0
0.187672 -0.760903 0
0.0469929 -0.0518972 0
-1.52048 -4.42414 0
0.0129384 -0.0428741 0
0.0459106 -0.0975025 0
0.809757 -0.276024 0
0.898383 -5.6572 0
0.0338051 -0.102743 0
-1.66436 -4.08444 0
0.0330651 -0.0890708 0
0.0308354 -0.117126 0
0.19374 -3.84231 0
0.488493 -2.90018 0
0.180226 -0.0882617 0
-0.0904051 -3.75661 0
0.091028 -3.33715 0
-0.539711 -5.36904 0
0.118561 -0.216743 0
0.0132407 -0.119068 0
0.143039 -2.43504 0
0.583987 -0.252703 0
0.311313 -3.64917 0
0.0430417 -0.038942 0
0.0119582 -0.103708 0
-0.150268 -4.18223 0
0.367274 -0.156387 0
0.292741 -1.29195 0
0.513697 -3.71825 0
0.205532 -1.59786 0
0.493974 -0.411997 0
0.69133 -2.11446 0
1.80669 -3.05958 0
0.913257 -0.511683 0
0.375753 -3.07559 0
0.59837 -2.45342 0
-0.285108 -0.210845 0
-0.356148 -0.105835 0
-0.295689 -0.0984522 0
-0.990355 -0.16316 0
-0.105262 -0.535467 0
0.00472738 -0.0609646 0
-0.447267 -1.35789 0
-1.1892 -1.02401 0
-0.403434 -1.57381 0
-0.991804 -1.56598 0
-1.11646 -1.26138 0
-0.00532062 -0.0728856 0
-0.589541 -1.3532 0
-0.0504384 -1.199 0
-1.98391 -3.14233 0
-2.67446 -3.98161 0
0.0328845 -0.585143 0
-0.427897 -3.27504 0
-3.15558 -3.49832 0
0.11084 -0.490375 0
-0.640701 -1.96781 0
0.00355908 -0.897029 0
-0.0103239 -0.0236133 0
-0.0846345 -0.5069 0
-1.74678 -4.47733 0
-2.06161 -1.16825 0
-0.00742498 -0.0588996 0
-2.61016 -5.5455 0
-2.47079 -4.55882 0
0.167974 -1.17178 0
-0.015483 -3.08985 0
-1.9721 -0.36232 0
-0.578612 -2.02134 0
0.0983618 -0.456691 0
0.239101 -0.842148 0
-2.09236 -3.44843 0
-2.35839 -3.09468 0
-0.0813245 -0.0352058 0
-3.6575 -6.15825 0
0.163333 -0.644 0
-2.04737 -1.73303 0
-0.0618576 -0.0819628 0
0.345905 -0.815483 0
0.00188317 -0.0228798 0
-1.40557 -0.680839 0
-0.363541 -1.12391 0
0.231383 -1.36779 0
-0.679804 -3.82919 0
-1.28418 -0.544252 0
-0.536809 -1.72042 0
-1.6863 -1.69033 0
0.0848519 -0.743438 0
-2.72924 -2.67873 0
-0.712543 -3.55512 0
0.143352 -0.801855 0
-2.21551 -0.952017 0
-0.0597596 -1.04751 0
-0.549377 -3.78577 0
0.0353808 -0.7548 0
-1.57625 -1.58649 0
0.0147953 -0.0737925 0
0.461577 -0.846231 0
-1.41385 -4.39485 0
-2.22433 -1.4311 0
0.0456387 -0.0417192 0
0.0267223 -0.11541 0
0.429642 -0.654573 0
0.385922 -0.850521 0
0.580775 -0.49612 0
-0.0266574 -0.388171 0
0.0129203 -0.0327037 0
-0.0192446 -0.288215 0
0.0459055 -0.0803428 0
0.125062 -0.433241 0
-0.00893984 -0.877646 0
0.00691778 -0.01349 0
0.00449597 -0.00888861 0
-0.0207794 -0.806095 0
0.114661 -0.164971 0
0.0584601 -0.655927 0
0.0136496 -0.0167528 0
0.0519013 -0.142339 0
0.0671973 -1.34506 0
0.0101722 -0.218495 0
0.0938222 -0.137544 0
-0.0400805 -0.192719 0
0.114323 -0.245122 0
0.0296859 -0.166654 0
0.108268 -0.58677 0
0.0229848 -0.11736 0
-0.00211464 -0.516009 0
0.253249 -1.05836 0
0.0626783 -0.286906 0
0.149333 -0.202721 0
0.0183594 -0.0352697 0
-0.0594827 -0.154091 0
0.109952 -0.0614486 0
0.4444 -0.402494 0
-0.0162258 -0.20059 0
-0.000417354 -0.111601 0
-0.000154985 -0.0506889 0
0.000290218 -0.0300533 0
0.0638854 -0.814944 0
0.0542711 -0.206611 0
0.151496 -0.477261 0
0.0876048 -0.155442 0
0.0392443 -0.133519 0
0.0441352 -0.222326 0
-0.0340366 -0.179136 0
0.143389 -0.221168 0
0.0386647 -0.0825453 0
0.0026177 -0.0147647 0
0.0106158 -0.843953 0
0.0973356 -0.311021 0
0.117727 -0.290906 0
0.160803 -0.43993 0
-0.00061734 -0.0232848 0
0.110858 -0.810291 0
0.0270199 -0.136064 0
-0.019105 -0.0830185 0
0.171321 -0.123078 0
0.0223566 -0.0640347 0
0.0376905 -0.26804 0
0.173716 -0.320127 0
0.0116178 -0.728773 0
0.0618898 -0.347542 0
0.0721839 -0.616753 0
0.00418378 -0.0150444 0
-0.177658 -0.8988 0
0.0199756 -0.144401 0
-0.00130999 -0.245403 0
-0.518027 -0.253055 0
0.0426498 -0.133245 0
-0.150975 -0.833261 0
0.00606273 -0.406351 0
-0.102949 -0.116322 0
0.00529277 -0.111799 0
-0.827706 -0.350566 0
-1.04186 -0.707499 0
0.116317 -0.163051 0
0.0568245 -0.278579 0
-1.24753 -1.03937 0
-1.34585 -0.39128 0
-0.0535292 -0.127887 0
-0.671195 -0.3645 0
-0.172298 -0.319223 0
0.0233776 -0.10007 0
-1.15216 -0.503113 0
-0.732858 -0.647863 0
0.107548 -0.221003 0
-0.49343 -0.442525 0
-1.04623 -0.708515 0
0.0488805 -0.281673 0
-1.0363 -0.90659 0
0.0132413 -0.0740321 0
-1.60878 -1.00862 0
-0.0111717 -0.2541 0
0.0068508 -1.02489 0
0.010794 -0.13024 0
0.023074 -0.291828 0
-0.276223 -0.400048 0
-0.794988 -0.597214 0
0.00186845 -0.246471 0
-0.823431 -0.671096 0
-1.66319 -0.407246 0
0.00802673 -0.074774 0
-0.10124 -0.398883 0
-0.958946 -0.0886938 0
0.0119553 -0.0954793 0
-0.0159112 -0.208413 0
0.000152126 -0.252572 0
0.0550974 -0.16119 0
-1.36688 -0.891755 0
-0.614754 -0.25458 0
-1.07268 -0.717221 0
-1.25808 -1.13101 0
-0.194945 -0.468266 0
0.0135388 -0.0763437 0
0.113587 -0.330373 0
0.0285648 -0.203752 0
-0.244928 -0.369998 0
-1.05788 -0.37354 0
-1.53687 -0.38018 0
0.116463 -0.331796 0
-0.35999 -0.148437 0
-0.556428 -0.815976 0
0.0659042 -0.348775 0
-0.011721 -0.177352 0
-0.356391 -0.953464 0
0.0552091 -0.174603 0
-0.00684956 -0.254042 0
-0.00262873 -0.170482 0
