# vtk DataFile Version 2.0
Unstructured Grid by M++
ASCII
DATASET UNSTRUCTURED_GRID
POINTS 81 float
  1.000000   0.625000 0
  0.750000   0.375000 0
  1.000000   0.000000 0
  0.875000   0.875000 0
  0.750000   0.125000 0
  1.000000   1.000000 0
  0.875000   0.250000 0
  0.625000   0.875000 0
  1.000000   0.750000 0
  0.875000   0.000000 0
  1.000000   0.250000 0
  0.625000   0.375000 0
  0.875000   0.500000 0
  0.625000   0.625000 0
  1.000000   0.500000 0
  0.750000   0.500000 0
  0.750000   1.000000 0
  1.000000   0.125000 0
  0.625000   0.250000 0
  0.750000   0.750000 0
  0.625000   0.000000 0
  0.125000   0.375000 0
  0.000000   0.500000 0
  0.125000   0.625000 0
  0.625000   1.000000 0
  1.000000   0.875000 0
  0.875000   0.125000 0
  0.500000   0.250000 0
  0.625000   0.500000 0
  0.250000   0.625000 0
  0.000000   0.625000 0
  0.375000   0.500000 0
  0.375000   0.000000 0
  0.000000   0.125000 0
  0.125000   0.875000 0
  0.875000   1.000000 0
  0.750000   0.250000 0
  0.375000   0.375000 0
  0.250000   0.375000 0
  0.625000   0.750000 0
  0.125000   0.125000 0
  0.500000   0.000000 0
  0.250000   0.875000 0
  0.125000   0.500000 0
  0.500000   0.375000 0
  0.125000   0.000000 0
  0.250000   0.750000 0
  0.250000   0.500000 0
  0.000000   0.875000 0
  0.875000   0.625000 0
  0.500000   0.750000 0
  0.750000   0.625000 0
  0.250000   0.000000 0
  0.375000   0.750000 0
  0.750000   0.875000 0
  0.625000   0.125000 0
  0.250000   0.250000 0
  0.375000   1.000000 0
  0.375000   0.250000 0
  0.000000   0.375000 0
  0.500000   1.000000 0
  0.875000   0.750000 0
  0.750000   0.000000 0
  0.375000   0.125000 0
  0.500000   0.875000 0
  0.000000   0.000000 0
  0.125000   0.750000 0
  0.500000   0.625000 0
  0.125000   0.250000 0
  0.500000   0.125000 0
  0.250000   1.000000 0
  0.250000   0.125000 0
  0.000000   1.000000 0
  0.375000   0.875000 0
  0.000000   0.750000 0
  0.375000   0.625000 0
  0.000000   0.250000 0
  0.125000   1.000000 0
  1.000000   0.375000 0
  0.500000   0.500000 0
  0.875000   0.375000 0
CELLS 64 320
4 56 71 58 63
4 27 58 69 63
4 41 69 32 63
4 76 33 68 40
4 27 44 58 37
4 79 31 44 37
4 56 38 68 21
4 56 58 38 37
4 52 32 71 63
4 47 38 31 37
4 76 68 59 21
4 22 59 43 21
4 65 45 33 40
4 47 43 38 21
4 52 71 45 40
4 56 68 71 40
4 74 30 66 23
4 46 66 29 23
4 22 43 30 23
4 72 48 77 34
4 46 53 42 73
4 50 64 53 73
4 70 42 57 73
4 74 66 48 34
4 46 42 66 34
4 47 29 43 23
4 70 77 42 34
4 60 57 64 73
4 79 67 31 75
4 47 31 29 75
4 50 53 67 75
4 46 29 53 75
4 10 78 6 80
4 36 6 1 80
4 15 1 12 80
4 36 4 6 26
4 14 12 78 80
4 2 17 9 26
4 36 18 4 55
4 15 28 1 11
4 62 4 20 55
4 10 6 17 26
4 27 18 44 11
4 62 9 4 26
4 27 69 18 55
4 36 1 18 11
4 41 20 69 55
4 79 44 28 11
4 16 24 54 7
4 19 54 39 7
4 50 39 64 7
4 8 25 61 3
4 60 64 24 7
4 79 28 67 13
4 19 51 61 49
4 8 61 0 49
4 15 51 28 13
4 19 39 51 13
4 50 67 39 13
4 19 61 54 3
4 14 0 12 49
4 5 35 25 3
4 15 12 51 49
4 16 54 35 3
CELL_TYPES 64
8
8
8
8
8
8
8
8
8
8
8
8
8
8
8
8
8
8
8
8
8
8
8
8
8
8
8
8
8
8
8
8
8
8
8
8
8
8
8
8
8
8
8
8
8
8
8
8
8
8
8
8
8
8
8
8
8
8
8
8
8
8
8
8
CELL_DATA 64
VECTORS vector_value float
-0.0607113 -0.215366 0
-0.00390094 -0.0853386 0
-0.0103942 -0.0895557 0
0.059323 -1.61545 0
-0.140556 -0.480517 0
-0.0812199 -0.660698 0
-0.0125792 -0.644042 0
-0.548119 -0.711687 0
0.0474673 -0.311445 0
0.213667 -0.415197 0
0.220118 -2.31278 0
-0.0294569 -2.21608 0
-0.421335 -2.42639 0
0.112659 -0.830761 0
-0.205834 -1.20684 0
-0.222664 -2.10468 0
-0.096003 -2.15622 0
-0.391025 -0.655696 0
-0.00677661 -2.24584 0
-0.136698 -1.1765 0
-0.582186 -1.26139 0
0.0250268 -0.628636 0
0.0436672 -1.22264 0
-0.372587 -1.74937 0
-0.627406 -0.327778 0
-0.114795 -1.10664 0
-0.102467 -0.589196 0
-0.200924 -1.45064 0
-0.0164532 -0.447269 0
-0.0285318 -0.175225 0
-0.0627592 -0.410011 0
-0.366289 -0.678346 0
-0.20401 -2.41222 0
-0.344076 -1.03917 0
0.0659547 -0.85759 0
-0.291497 -1.13964 0
0.122477 -2.68875 0
-0.156623 -1.44488 0
-0.097098 -0.618127 0
-0.0239264 -0.194035 0
-0.152699 -1.107 0
-0.226393 -2.01587 0
0.0616757 -0.147724 0
-0.391631 -1.30492 0
0.0502573 -0.205529 0
-0.0928355 -0.251862 0
0.0214575 -0.108977 0
-0.105806 -0.136892 0
0.16928 -0.841062 0
0.17186 -0.936387 0
0.449217 -0.972395 0
0.0601602 -1.21491 0
-0.19763 -0.475792 0
-0.0125202 -0.237183 0
0.380063 -0.989548 0
0.185222 -1.58734 0
0.172921 -0.348559 0
0.630343 -0.936994 0
0.14821 -0.585837 0
0.161588 -0.909132 0
0.309278 -2.07908 0
0.106223 -1.24133 0
0.751557 -1.3602 0
0.200106 -1.00284 0
