# vtk DataFile Version 2.0
Unstructured Grid by M++
ASCII
DATASET UNSTRUCTURED_GRID
POINTS 81 float
  1.000000   0.625000 0
  0.750000   0.375000 0
  1.000000   0.000000 0
  0.875000   0.875000 0
  0.750000   0.125000 0
  1.000000   1.000000 0
  0.875000   0.250000 0
  0.625000   0.875000 0
  1.000000   0.750000 0
  0.875000   0.000000 0
  1.000000   0.250000 0
  0.625000   0.375000 0
  0.875000   0.500000 0
  0.625000   0.625000 0
  1.000000   0.500000 0
  0.750000   0.500000 0
  0.750000   1.000000 0
  1.000000   0.125000 0
  0.625000   0.250000 0
  0.750000   0.750000 0
  0.625000   0.000000 0
  0.125000   0.375000 0
  0.000000   0.500000 0
  0.125000   0.625000 0
  0.625000   1.000000 0
  1.000000   0.875000 0
  0.875000   0.125000 0
  0.500000   0.250000 0
  0.625000   0.500000 0
  0.250000   0.625000 0
  0.000000   0.625000 0
  0.375000   0.500000 0
  0.375000   0.000000 0
  0.000000   0.125000 0
  0.125000   0.875000 0
  0.875000   1.000000 0
  0.750000   0.250000 0
  0.375000   0.375000 0
  0.250000   0.375000 0
  0.625000   0.750000 0
  0.125000   0.125000 0
  0.500000   0.000000 0
  0.250000   0.875000 0
  0.125000   0.500000 0
  0.500000   0.375000 0
  0.125000   0.000000 0
  0.250000   0.750000 0
  0.250000   0.500000 0
  0.000000   0.875000 0
  0.875000   0.625000 0
  0.500000   0.750000 0
  0.750000   0.625000 0
  0.250000   0.000000 0
  0.375000   0.750000 0
  0.750000   0.875000 0
  0.625000   0.125000 0
  0.250000   0.250000 0
  0.375000   1.000000 0
  0.375000   0.250000 0
  0.000000   0.375000 0
  0.500000   1.000000 0
  0.875000   0.750000 0
  0.750000   0.000000 0
  0.375000   0.125000 0
  0.500000   0.875000 0
  0.000000   0.000000 0
  0.125000   0.750000 0
  0.500000   0.625000 0
  0.125000   0.250000 0
  0.500000   0.125000 0
  0.250000   1.000000 0
  0.250000   0.125000 0
  0.000000   1.000000 0
  0.375000   0.875000 0
  0.000000   0.750000 0
  0.375000   0.625000 0
  0.000000   0.250000 0
  0.125000   1.000000 0
  1.000000   0.375000 0
  0.500000   0.500000 0
  0.875000   0.375000 0
CELLS 64 320
4 56 71 58 63
4 27 58 69 63
4 41 69 32 63
4 76 33 68 40
4 27 44 58 37
4 79 31 44 37
4 56 38 68 21
4 56 58 38 37
4 52 32 71 63
4 47 38 31 37
4 76 68 59 21
4 22 59 43 21
4 65 45 33 40
4 47 43 38 21
4 52 71 45 40
4 56 68 71 40
4 74 30 66 23
4 46 66 29 23
4 22 43 30 23
4 72 48 77 34
4 46 53 42 73
4 50 64 53 73
4 70 42 57 73
4 74 66 48 34
4 46 42 66 34
4 47 29 43 23
4 70 77 42 34
4 60 57 64 73
4 79 67 31 75
4 47 31 29 75
4 50 53 67 75
4 46 29 53 75
4 10 78 6 80
4 36 6 1 80
4 15 1 12 80
4 36 4 6 26
4 14 12 78 80
4 2 17 9 26
4 36 18 4 55
4 15 28 1 11
4 62 4 20 55
4 10 6 17 26
4 27 18 44 11
4 62 9 4 26
4 27 69 18 55
4 36 1 18 11
4 41 20 69 55
4 79 44 28 11
4 16 24 54 7
4 19 54 39 7
4 50 39 64 7
4 8 25 61 3
4 60 64 24 7
4 79 28 67 13
4 19 51 61 49
4 8 61 0 49
4 15 51 28 13
4 19 39 51 13
4 50 67 39 13
4 19 61 54 3
4 14 0 12 49
4 5 35 25 3
4 15 12 51 49
4 16 54 35 3
CELL_TYPES 64
8
8
8
8
8
8
8
8
8
8
8
8
8
8
8
8
8
8
8
8
8
8
8
8
8
8
8
8
8
8
8
8
8
8
8
8
8
8
8
8
8
8
8
8
8
8
8
8
8
8
8
8
8
8
8
8
8
8
8
8
8
8
8
8
CELL_DATA 64
VECTORS vector_value float
-0.266884 -0.616316 0
0.859191 -0.598405 0
0.010078 -0.0215366 0
0.145858 -0.456884 0
1.18226 -0.861508 0
0.00155007 -0.0366198 0
0.0490442 -1.05166 0
1.48591 -2.38557 0
-0.0030422 -0.089854 0
0.40686 -0.957859 0
-0.101617 -1.51758 0
-0.162881 -0.322069 0
-0.519252 -1.38059 0
0.626866 -4.68874 0
-0.187661 -2.45387 0
-0.420979 -3.02272 0
0.255993 -1.04315 0
-0.0737296 -0.677543 0
0.150834 -0.351401 0
0.20857 -0.582943 0
-0.14213 -0.852981 0
-1.19886 -1.57226 0
-0.119461 -0.880831 0
-0.254341 -0.881101 0
0.109731 -1.35145 0
-1.23881 -4.14878 0
-0.00325795 -1.52091 0
-0.167976 -1.30038 0
-0.0645573 -0.228944 0
-0.77052 -1.34164 0
-1.05509 -1.06873 0
-1.97063 -3.1289 0
0.020379 -0.981759 0
-0.0190204 -0.559956 0
0.288402 -0.34472 0
-0.0180546 -0.178266 0
0.0850088 -1.0421 0
-0.00796578 -1.14928 0
0.0643844 -0.570978 0
0.112519 -0.418399 0
0.411579 -1.43233 0
0.0681748 -1.1427 0
0.136616 -0.534486 0
-0.0110961 -0.135759 0
0.947085 -1.41374 0
-0.0105481 -0.107474 0
0.477254 -1.33677 0
0.029896 -0.189487 0
-1.32435 -0.584246 0
-0.14135 -0.143504 0
-1.0642 -2.21059 0
-0.0189563 -0.642871 0
-0.808994 -1.6986 0
0.140638 -0.328946 0
0.0644906 -0.28264 0
0.0360857 -0.658597 0
0.331104 -0.569341 0
0.126469 -0.224295 0
0.107014 -0.916148 0
-0.103887 -0.345233 0
0.0505356 -0.791516 0
-0.159947 -0.753988 0
0.117953 -0.239432 0
-0.603473 -0.6781 0
