# vtk DataFile Version 2.0
Unstructured Grid by M++
ASCII
DATASET UNSTRUCTURED_GRID
POINTS 81 float
  1.000000   0.625000 0
  0.750000   0.375000 0
  1.000000   0.000000 0
  0.875000   0.875000 0
  0.750000   0.125000 0
  1.000000   1.000000 0
  0.875000   0.250000 0
  0.625000   0.875000 0
  1.000000   0.750000 0
  0.875000   0.000000 0
  1.000000   0.250000 0
  0.625000   0.375000 0
  0.875000   0.500000 0
  0.625000   0.625000 0
  1.000000   0.500000 0
  0.750000   0.500000 0
  0.750000   1.000000 0
  1.000000   0.125000 0
  0.625000   0.250000 0
  0.750000   0.750000 0
  0.625000   0.000000 0
  0.125000   0.375000 0
  0.000000   0.500000 0
  0.125000   0.625000 0
  0.625000   1.000000 0
  1.000000   0.875000 0
  0.875000   0.125000 0
  0.500000   0.250000 0
  0.625000   0.500000 0
  0.250000   0.625000 0
  0.000000   0.625000 0
  0.375000   0.500000 0
  0.375000   0.000000 0
  0.000000   0.125000 0
  0.125000   0.875000 0
  0.875000   1.000000 0
  0.750000   0.250000 0
  0.375000   0.375000 0
  0.250000   0.375000 0
  0.625000   0.750000 0
  0.125000   0.125000 0
  0.500000   0.000000 0
  0.250000   0.875000 0
  0.125000   0.500000 0
  0.500000   0.375000 0
  0.125000   0.000000 0
  0.250000   0.750000 0
  0.250000   0.500000 0
  0.000000   0.875000 0
  0.875000   0.625000 0
  0.500000   0.750000 0
  0.750000   0.625000 0
  0.250000   0.000000 0
  0.375000   0.750000 0
  0.750000   0.875000 0
  0.625000   0.125000 0
  0.250000   0.250000 0
  0.375000   1.000000 0
  0.375000   0.250000 0
  0.000000   0.375000 0
  0.500000   1.000000 0
  0.875000   0.750000 0
  0.750000   0.000000 0
  0.375000   0.125000 0
  0.500000   0.875000 0
  0.000000   0.000000 0
  0.125000   0.750000 0
  0.500000   0.625000 0
  0.125000   0.250000 0
  0.500000   0.125000 0
  0.250000   1.000000 0
  0.250000   0.125000 0
  0.000000   1.000000 0
  0.375000   0.875000 0
  0.000000   0.750000 0
  0.375000   0.625000 0
  0.000000   0.250000 0
  0.125000   1.000000 0
  1.000000   0.375000 0
  0.500000   0.500000 0
  0.875000   0.375000 0
CELLS 64 320
4 56 71 58 63
4 27 58 69 63
4 41 69 32 63
4 76 33 68 40
4 27 44 58 37
4 79 31 44 37
4 56 38 68 21
4 56 58 38 37
4 52 32 71 63
4 47 38 31 37
4 76 68 59 21
4 22 59 43 21
4 65 45 33 40
4 47 43 38 21
4 52 71 45 40
4 56 68 71 40
4 74 30 66 23
4 46 66 29 23
4 22 43 30 23
4 72 48 77 34
4 46 53 42 73
4 50 64 53 73
4 70 42 57 73
4 74 66 48 34
4 46 42 66 34
4 47 29 43 23
4 70 77 42 34
4 60 57 64 73
4 79 67 31 75
4 47 31 29 75
4 50 53 67 75
4 46 29 53 75
4 10 78 6 80
4 36 6 1 80
4 15 1 12 80
4 36 4 6 26
4 14 12 78 80
4 2 17 9 26
4 36 18 4 55
4 15 28 1 11
4 62 4 20 55
4 10 6 17 26
4 27 18 44 11
4 62 9 4 26
4 27 69 18 55
4 36 1 18 11
4 41 20 69 55
4 79 44 28 11
4 16 24 54 7
4 19 54 39 7
4 50 39 64 7
4 8 25 61 3
4 60 64 24 7
4 79 28 67 13
4 19 51 61 49
4 8 61 0 49
4 15 51 28 13
4 19 39 51 13
4 50 67 39 13
4 19 61 54 3
4 14 0 12 49
4 5 35 25 3
4 15 12 51 49
4 16 54 35 3
CELL_TYPES 64
8
8
8
8
8
8
8
8
8
8
8
8
8
8
8
8
8
8
8
8
8
8
8
8
8
8
8
8
8
8
8
8
8
8
8
8
8
8
8
8
8
8
8
8
8
8
8
8
8
8
8
8
8
8
8
8
8
8
8
8
8
8
8
8
CELL_DATA 64
VECTORS vector_value float
0.242699 -0.356427 0
0.102797 -0.596727 0
0.0340823 -0.423532 0
0.0787443 -0.627284 0
1.19755 -1.5085 0
0.395948 -1.48556 0
1.24852 -1.03027 0
0.663791 -0.149404 0
0.200725 -0.897053 0
0.444347 -0.262487 0
0.812198 -1.73051 0
-0.0829154 -2.82934 0
0.0137294 -0.558007 0
0.107245 -0.415615 0
0.1249 -1.11805 0
0.468017 -1.5786 0
-0.216362 -0.583608 0
-1.15733 -2.6741 0
-0.702173 -1.3091 0
0.0735029 -1.00646 0
-0.869484 -2.43204 0
-0.345456 -0.184114 0
0.166924 -1.53058 0
0.24656 -0.440399 0
0.17273 -1.24425 0
-0.83506 -2.42788 0
0.274769 -0.538759 0
-0.525626 -1.01448 0
-0.0118068 -0.250526 0
0.453001 -0.650242 0
-0.126679 -0.141958 0
-0.89313 -1.14527 0
-0.170567 -1.52605 0
-0.238199 -0.149402 0
-0.0100451 -0.239014 0
-0.11319 -0.287958 0
0.082396 -1.61027 0
-0.00865698 -1.20931 0
0.0217706 -0.427999 0
-0.155324 -0.162362 0
0.0804114 -0.572049 0
-0.0339093 -1.23728 0
0.687352 -1.68745 0
0.0184964 -0.34299 0
0.321314 -2.88773 0
-0.148044 -0.218413 0
0.0782665 -2.87901 0
-0.272614 -0.995354 0
0.58669 -0.655561 0
-0.173985 -0.505615 0
-0.225399 -0.364955 0
0.30548 -1.87488 0
0.073167 -0.624315 0
-0.454157 -1.00066 0
-0.481464 -0.698526 0
-0.241091 -1.79618 0
-0.360221 -0.328304 0
-0.499571 -0.595424 0
-0.13103 -0.364933 0
0.0138258 -0.953742 0
0.0194113 -1.42427 0
0.150149 -1.0624 0
-0.0461001 -0.609014 0
0.740563 -1.56745 0
