# vtk DataFile Version 2.0
Unstructured Grid by M++
ASCII
DATASET UNSTRUCTURED_GRID
POINTS 81 float
  1.000000   0.625000 0
  0.750000   0.375000 0
  1.000000   0.000000 0
  0.875000   0.875000 0
  0.750000   0.125000 0
  1.000000   1.000000 0
  0.875000   0.250000 0
  0.625000   0.875000 0
  1.000000   0.750000 0
  0.875000   0.000000 0
  1.000000   0.250000 0
  0.625000   0.375000 0
  0.875000   0.500000 0
  0.625000   0.625000 0
  1.000000   0.500000 0
  0.750000   0.500000 0
  0.750000   1.000000 0
  1.000000   0.125000 0
  0.625000   0.250000 0
  0.750000   0.750000 0
  0.625000   0.000000 0
  0.125000   0.375000 0
  0.000000   0.500000 0
  0.125000   0.625000 0
  0.625000   1.000000 0
  1.000000   0.875000 0
  0.875000   0.125000 0
  0.500000   0.250000 0
  0.625000   0.500000 0
  0.250000   0.625000 0
  0.000000   0.625000 0
  0.375000   0.500000 0
  0.375000   0.000000 0
  0.000000   0.125000 0
  0.125000   0.875000 0
  0.875000   1.000000 0
  0.750000   0.250000 0
  0.375000   0.375000 0
  0.250000   0.375000 0
  0.625000   0.750000 0
  0.125000   0.125000 0
  0.500000   0.000000 0
  0.250000   0.875000 0
  0.125000   0.500000 0
  0.500000   0.375000 0
  0.125000   0.000000 0
  0.250000   0.750000 0
  0.250000   0.500000 0
  0.000000   0.875000 0
  0.875000   0.625000 0
  0.500000   0.750000 0
  0.750000   0.625000 0
  0.250000   0.000000 0
  0.375000   0.750000 0
  0.750000   0.875000 0
  0.625000   0.125000 0
  0.250000   0.250000 0
  0.375000   1.000000 0
  0.375000   0.250000 0
  0.000000   0.375000 0
  0.500000   1.000000 0
  0.875000   0.750000 0
  0.750000   0.000000 0
  0.375000   0.125000 0
  0.500000   0.875000 0
  0.000000   0.000000 0
  0.125000   0.750000 0
  0.500000   0.625000 0
  0.125000   0.250000 0
  0.500000   0.125000 0
  0.250000   1.000000 0
  0.250000   0.125000 0
  0.000000   1.000000 0
  0.375000   0.875000 0
  0.000000   0.750000 0
  0.375000   0.625000 0
  0.000000   0.250000 0
  0.125000   1.000000 0
  1.000000   0.375000 0
  0.500000   0.500000 0
  0.875000   0.375000 0
CELLS 64 320
4 56 71 58 63
4 27 58 69 63
4 41 69 32 63
4 76 33 68 40
4 27 44 58 37
4 79 31 44 37
4 56 38 68 21
4 56 58 38 37
4 52 32 71 63
4 47 38 31 37
4 76 68 59 21
4 22 59 43 21
4 65 45 33 40
4 47 43 38 21
4 52 71 45 40
4 56 68 71 40
4 74 30 66 23
4 46 66 29 23
4 22 43 30 23
4 72 48 77 34
4 46 53 42 73
4 50 64 53 73
4 70 42 57 73
4 74 66 48 34
4 46 42 66 34
4 47 29 43 23
4 70 77 42 34
4 60 57 64 73
4 79 67 31 75
4 47 31 29 75
4 50 53 67 75
4 46 29 53 75
4 10 78 6 80
4 36 6 1 80
4 15 1 12 80
4 36 4 6 26
4 14 12 78 80
4 2 17 9 26
4 36 18 4 55
4 15 28 1 11
4 62 4 20 55
4 10 6 17 26
4 27 18 44 11
4 62 9 4 26
4 27 69 18 55
4 36 1 18 11
4 41 20 69 55
4 79 44 28 11
4 16 24 54 7
4 19 54 39 7
4 50 39 64 7
4 8 25 61 3
4 60 64 24 7
4 79 28 67 13
4 19 51 61 49
4 8 61 0 49
4 15 51 28 13
4 19 39 51 13
4 50 67 39 13
4 19 61 54 3
4 14 0 12 49
4 5 35 25 3
4 15 12 51 49
4 16 54 35 3
CELL_TYPES 64
8
8
8
8
8
8
8
8
8
8
8
8
8
8
8
8
8
8
8
8
8
8
8
8
8
8
8
8
8
8
8
8
8
8
8
8
8
8
8
8
8
8
8
8
8
8
8
8
8
8
8
8
8
8
8
8
8
8
8
8
8
8
8
8
CELL_DATA 64
VECTORS vector_value float
0.146505 -0.741593 0
0.618594 -1.41673 0
0.192407 -0.571947 0
0.0566981 -0.194655 0
0.291247 -1.83326 0
0.445382 -1.00164 0
0.0270971 -0.228966 0
0.0534627 -0.623011 0
0.0287928 -0.553607 0
0.710216 -1.53717 0
0.0102009 -0.240865 0
0.0355548 -0.275247 0
0.00731042 -0.105564 0
0.105792 -0.211212 0
0.0184228 -0.215001 0
0.105368 -0.152696 0
0.192039 -1.04968 0
0.309816 -0.935916 0
0.253495 -0.593049 0
0.206451 -0.65244 0
-0.0328165 -0.220832 0
-0.1805 -0.37117 0
0.485101 -0.554377 0
-0.313313 -1.13209 0
-0.374951 -0.784358 0
0.808668 -0.551357 0
0.289793 -1.16186 0
1.16962 -0.669265 0
-0.0531304 -0.479301 0
0.727009 -1.32887 0
-0.111694 -0.215556 0
-0.210841 -0.508417 0
-0.0312051 -1.49267 0
-0.105587 -2.16814 0
-1.63726 -2.48578 0
0.168235 -1.566 0
-0.627594 -2.13996 0
0.23117 -2.45953 0
-0.0404075 -1.1488 0
-0.308876 -0.185927 0
-0.127765 -1.51509 0
0.289084 -1.87282 0
-0.0145996 -0.530189 0
0.0622891 -0.652171 0
0.330405 -0.906705 0
-0.51916 -0.882898 0
0.498412 -1.92709 0
-0.143202 -0.163054 0
1.50317 -1.99083 0
0.947692 -1.38995 0
-0.0743989 -0.393001 0
0.775499 -2.31645 0
1.78274 -1.11067 0
-0.0723663 -0.0378088 0
0.460464 -1.21052 0
0.450044 -3.64557 0
-0.0911648 -0.207766 0
-0.0155384 -0.215349 0
-0.133583 -0.218995 0
2.0707 -1.39215 0
-0.611544 -4.07413 0
0.292837 -1.36017 0
-0.114099 -0.727722 0
0.391251 -0.500395 0
