# vtk DataFile Version 2.0
Unstructured Grid by M++
ASCII
DATASET UNSTRUCTURED_GRID
POINTS 81 float
  1.000000   0.625000 0
  0.750000   0.375000 0
  1.000000   0.000000 0
  0.875000   0.875000 0
  0.750000   0.125000 0
  1.000000   1.000000 0
  0.875000   0.250000 0
  0.625000   0.875000 0
  1.000000   0.750000 0
  0.875000   0.000000 0
  1.000000   0.250000 0
  0.625000   0.375000 0
  0.875000   0.500000 0
  0.625000   0.625000 0
  1.000000   0.500000 0
  0.750000   0.500000 0
  0.750000   1.000000 0
  1.000000   0.125000 0
  0.625000   0.250000 0
  0.750000   0.750000 0
  0.625000   0.000000 0
  0.125000   0.375000 0
  0.000000   0.500000 0
  0.125000   0.625000 0
  0.625000   1.000000 0
  1.000000   0.875000 0
  0.875000   0.125000 0
  0.500000   0.250000 0
  0.625000   0.500000 0
  0.250000   0.625000 0
  0.000000   0.625000 0
  0.375000   0.500000 0
  0.375000   0.000000 0
  0.000000   0.125000 0
  0.125000   0.875000 0
  0.875000   1.000000 0
  0.750000   0.250000 0
  0.375000   0.375000 0
  0.250000   0.375000 0
  0.625000   0.750000 0
  0.125000   0.125000 0
  0.500000   0.000000 0
  0.250000   0.875000 0
  0.125000   0.500000 0
  0.500000   0.375000 0
  0.125000   0.000000 0
  0.250000   0.750000 0
  0.250000   0.500000 0
  0.000000   0.875000 0
  0.875000   0.625000 0
  0.500000   0.750000 0
  0.750000   0.625000 0
  0.250000   0.000000 0
  0.375000   0.750000 0
  0.750000   0.875000 0
  0.625000   0.125000 0
  0.250000   0.250000 0
  0.375000   1.000000 0
  0.375000   0.250000 0
  0.000000   0.375000 0
  0.500000   1.000000 0
  0.875000   0.750000 0
  0.750000   0.000000 0
  0.375000   0.125000 0
  0.500000   0.875000 0
  0.000000   0.000000 0
  0.125000   0.750000 0
  0.500000   0.625000 0
  0.125000   0.250000 0
  0.500000   0.125000 0
  0.250000   1.000000 0
  0.250000   0.125000 0
  0.000000   1.000000 0
  0.375000   0.875000 0
  0.000000   0.750000 0
  0.375000   0.625000 0
  0.000000   0.250000 0
  0.125000   1.000000 0
  1.000000   0.375000 0
  0.500000   0.500000 0
  0.875000   0.375000 0
CELLS 64 320
4 56 71 58 63
4 27 58 69 63
4 41 69 32 63
4 76 33 68 40
4 27 44 58 37
4 79 31 44 37
4 56 38 68 21
4 56 58 38 37
4 52 32 71 63
4 47 38 31 37
4 76 68 59 21
4 22 59 43 21
4 65 45 33 40
4 47 43 38 21
4 52 71 45 40
4 56 68 71 40
4 74 30 66 23
4 46 66 29 23
4 22 43 30 23
4 72 48 77 34
4 46 53 42 73
4 50 64 53 73
4 70 42 57 73
4 74 66 48 34
4 46 42 66 34
4 47 29 43 23
4 70 77 42 34
4 60 57 64 73
4 79 67 31 75
4 47 31 29 75
4 50 53 67 75
4 46 29 53 75
4 10 78 6 80
4 36 6 1 80
4 15 1 12 80
4 36 4 6 26
4 14 12 78 80
4 2 17 9 26
4 36 18 4 55
4 15 28 1 11
4 62 4 20 55
4 10 6 17 26
4 27 18 44 11
4 62 9 4 26
4 27 69 18 55
4 36 1 18 11
4 41 20 69 55
4 79 44 28 11
4 16 24 54 7
4 19 54 39 7
4 50 39 64 7
4 8 25 61 3
4 60 64 24 7
4 79 28 67 13
4 19 51 61 49
4 8 61 0 49
4 15 51 28 13
4 19 39 51 13
4 50 67 39 13
4 19 61 54 3
4 14 0 12 49
4 5 35 25 3
4 15 12 51 49
4 16 54 35 3
CELL_TYPES 64
8
8
8
8
8
8
8
8
8
8
8
8
8
8
8
8
8
8
8
8
8
8
8
8
8
8
8
8
8
8
8
8
8
8
8
8
8
8
8
8
8
8
8
8
8
8
8
8
8
8
8
8
8
8
8
8
8
8
8
8
8
8
8
8
CELL_DATA 64
VECTORS vector_value float
0.0700947 -0.323343 0
-0.409075 -3.538 0
-0.0064916 -3.29015 0
0.00630603 -0.109021 0
-0.931983 -1.78986 0
-0.149407 -0.29071 0
0.595371 -0.257123 0
0.345828 -0.346683 0
-0.0816721 -0.552645 0
0.00504081 -0.0232116 0
0.159201 -0.263817 0
0.0901984 -0.734687 0
-0.0104474 -0.127968 0
0.00272093 -0.0442246 0
-0.00363137 -0.0372052 0
0.0102307 -0.0679042 0
-0.0320175 -0.541422 0
-0.00451405 -0.207815 0
-0.035722 -0.544811 0
0.372639 -0.411008 0
0.0456947 -0.221099 0
0.196734 -0.25542 0
1.67881 -0.652708 0
-0.115883 -0.286324 0
-0.168477 -0.412481 0
-0.105855 -0.234518 0
1.02698 -0.783485 0
2.41855 -1.46619 0
-0.00615818 -0.08213 0
-0.0141532 -0.0351545 0
0.0238546 -0.129244 0
-0.00475408 -0.0536622 0
0.0062451 -0.479368 0
0.0191908 -0.733795 0
-1.11994 -2.23571 0
1.03866 -2.35473 0
0.000678396 -0.412875 0
-0.0312595 -0.395155 0
0.191912 -0.241732 0
-3.12208 -3.04529 0
0.0689522 -0.172542 0
-0.0189144 -0.637211 0
-1.44624 -1.53716 0
-0.170208 -2.74961 0
-0.389786 -0.728062 0
0.435572 -2.5922 0
0.0835505 -0.674721 0
-1.20027 -1.21329 0
0.820952 -1.49402 0
1.36788 -1.92845 0
1.07756 -1.78856 0
0.186734 -0.96265 0
1.93474 -1.26043 0
-0.0462994 -0.833775 0
0.467904 -1.87951 0
0.425059 -2.08548 0
0.367955 -1.04662 0
0.611392 -2.23886 0
0.155338 -0.864005 0
1.14858 -2.14502 0
-0.798059 -0.935424 0
-0.0781158 -0.84777 0
-1.13184 -4.28757 0
-0.0107522 -1.08439 0
