# vtk DataFile Version 2.0
Unstructured Grid by M++
ASCII
DATASET UNSTRUCTURED_GRID
POINTS 81 float
  1.000000   0.625000 0
  0.750000   0.375000 0
  1.000000   0.000000 0
  0.875000   0.875000 0
  0.750000   0.125000 0
  1.000000   1.000000 0
  0.875000   0.250000 0
  0.625000   0.875000 0
  1.000000   0.750000 0
  0.875000   0.000000 0
  1.000000   0.250000 0
  0.625000   0.375000 0
  0.875000   0.500000 0
  0.625000   0.625000 0
  1.000000   0.500000 0
  0.750000   0.500000 0
  0.750000   1.000000 0
  1.000000   0.125000 0
  0.625000   0.250000 0
  0.750000   0.750000 0
  0.625000   0.000000 0
  0.125000   0.375000 0
  0.000000   0.500000 0
  0.125000   0.625000 0
  0.625000   1.000000 0
  1.000000   0.875000 0
  0.875000   0.125000 0
  0.500000   0.250000 0
  0.625000   0.500000 0
  0.250000   0.625000 0
  0.000000   0.625000 0
  0.375000   0.500000 0
  0.375000   0.000000 0
  0.000000   0.125000 0
  0.125000   0.875000 0
  0.875000   1.000000 0
  0.750000   0.250000 0
  0.375000   0.375000 0
  0.250000   0.375000 0
  0.625000   0.750000 0
  0.125000   0.125000 0
  0.500000   0.000000 0
  0.250000   0.875000 0
  0.125000   0.500000 0
  0.500000   0.375000 0
  0.125000   0.000000 0
  0.250000   0.750000 0
  0.250000   0.500000 0
  0.000000   0.875000 0
  0.875000   0.625000 0
  0.500000   0.750000 0
  0.750000   0.625000 0
  0.250000   0.000000 0
  0.375000   0.750000 0
  0.750000   0.875000 0
  0.625000   0.125000 0
  0.250000   0.250000 0
  0.375000   1.000000 0
  0.375000   0.250000 0
  0.000000   0.375000 0
  0.500000   1.000000 0
  0.875000   0.750000 0
  0.750000   0.000000 0
  0.375000   0.125000 0
  0.500000   0.875000 0
  0.000000   0.000000 0
  0.125000   0.750000 0
  0.500000   0.625000 0
  0.125000   0.250000 0
  0.500000   0.125000 0
  0.250000   1.000000 0
  0.250000   0.125000 0
  0.000000   1.000000 0
  0.375000   0.875000 0
  0.000000   0.750000 0
  0.375000   0.625000 0
  0.000000   0.250000 0
  0.125000   1.000000 0
  1.000000   0.375000 0
  0.500000   0.500000 0
  0.875000   0.375000 0
CELLS 64 320
4 56 71 58 63
4 27 58 69 63
4 41 69 32 63
4 76 33 68 40
4 27 44 58 37
4 79 31 44 37
4 56 38 68 21
4 56 58 38 37
4 52 32 71 63
4 47 38 31 37
4 76 68 59 21
4 22 59 43 21
4 65 45 33 40
4 47 43 38 21
4 52 71 45 40
4 56 68 71 40
4 74 30 66 23
4 46 66 29 23
4 22 43 30 23
4 72 48 77 34
4 46 53 42 73
4 50 64 53 73
4 70 42 57 73
4 74 66 48 34
4 46 42 66 34
4 47 29 43 23
4 70 77 42 34
4 60 57 64 73
4 79 67 31 75
4 47 31 29 75
4 50 53 67 75
4 46 29 53 75
4 10 78 6 80
4 36 6 1 80
4 15 1 12 80
4 36 4 6 26
4 14 12 78 80
4 2 17 9 26
4 36 18 4 55
4 15 28 1 11
4 62 4 20 55
4 10 6 17 26
4 27 18 44 11
4 62 9 4 26
4 27 69 18 55
4 36 1 18 11
4 41 20 69 55
4 79 44 28 11
4 16 24 54 7
4 19 54 39 7
4 50 39 64 7
4 8 25 61 3
4 60 64 24 7
4 79 28 67 13
4 19 51 61 49
4 8 61 0 49
4 15 51 28 13
4 19 39 51 13
4 50 67 39 13
4 19 61 54 3
4 14 0 12 49
4 5 35 25 3
4 15 12 51 49
4 16 54 35 3
CELL_TYPES 64
8
8
8
8
8
8
8
8
8
8
8
8
8
8
8
8
8
8
8
8
8
8
8
8
8
8
8
8
8
8
8
8
8
8
8
8
8
8
8
8
8
8
8
8
8
8
8
8
8
8
8
8
8
8
8
8
8
8
8
8
8
8
8
8
CELL_DATA 64
VECTORS vector_value float
0.604629 -0.713765 0
0.6803 -0.644292 0
0.243524 -0.947763 0
0.0481534 -0.116246 0
0.484714 -0.653853 0
-0.108726 -1.02418 0
0.348335 -0.362063 0
0.609558 -1.05259 0
0.0326759 -0.163197 0
0.100916 -0.296175 0
0.138731 -0.382289 0
0.164756 -0.747854 0
-0.0182049 -0.138471 0
0.415263 -0.813411 0
0.00120419 -0.21963 0
0.219681 -0.343007 0
-0.0408768 -1.29574 0
-0.12773 -0.625997 0
0.145405 -0.876868 0
0.197491 -0.559015 0
-0.057012 -0.328669 0
0.504411 -0.793042 0
0.587828 -0.445964 0
-0.207724 -0.880574 0
-0.221591 -0.819484 0
0.362739 -0.942772 0
0.254013 -1.38889 0
0.843317 -1.27648 0
-0.100567 -0.294451 0
0.197085 -0.218965 0
-0.00156584 -0.214696 0
-0.00993401 -0.118851 0
-0.214914 -0.320276 0
0.202139 -1.95086 0
0.0068026 -0.823027 0
0.151484 -2.15193 0
-0.0772063 -0.711038 0
0.0350738 -0.575835 0
-0.380222 -2.87354 0
0.704296 -2.22551 0
-0.0218037 -1.90342 0
0.139415 -0.268837 0
0.917532 -0.78442 0
0.00501788 -1.81276 0
0.166122 -0.888386 0
0.967208 -2.49364 0
-0.216597 -2.23893 0
0.157043 -1.35881 0
-0.535467 -1.34258 0
0.1955 -1.0409 0
0.630276 -2.70709 0
-0.234866 -0.737336 0
0.17318 -1.44633 0
0.136689 -3.27706 0
0.0996162 -1.08646 0
0.0714632 -0.3981 0
0.113361 -1.0073 0
-0.206206 -1.45559 0
-0.0888694 -2.80456 0
-0.178097 -0.692905 0
0.137948 -0.838065 0
-0.0631519 -1.05026 0
0.0373998 -0.544528 0
-0.341313 -0.490491 0
