# vtk DataFile Version 2.0
Unstructured Grid by M++
ASCII
DATASET UNSTRUCTURED_GRID
POINTS 81 float
  1.000000   0.625000 0
  0.750000   0.375000 0
  1.000000   0.000000 0
  0.875000   0.875000 0
  0.750000   0.125000 0
  1.000000   1.000000 0
  0.875000   0.250000 0
  0.625000   0.875000 0
  1.000000   0.750000 0
  0.875000   0.000000 0
  1.000000   0.250000 0
  0.625000   0.375000 0
  0.875000   0.500000 0
  0.625000   0.625000 0
  1.000000   0.500000 0
  0.750000   0.500000 0
  0.750000   1.000000 0
  1.000000   0.125000 0
  0.625000   0.250000 0
  0.750000   0.750000 0
  0.625000   0.000000 0
  0.125000   0.375000 0
  0.000000   0.500000 0
  0.125000   0.625000 0
  0.625000   1.000000 0
  1.000000   0.875000 0
  0.875000   0.125000 0
  0.500000   0.250000 0
  0.625000   0.500000 0
  0.250000   0.625000 0
  0.000000   0.625000 0
  0.375000   0.500000 0
  0.375000   0.000000 0
  0.000000   0.125000 0
  0.125000   0.875000 0
  0.875000   1.000000 0
  0.750000   0.250000 0
  0.375000   0.375000 0
  0.250000   0.375000 0
  0.625000   0.750000 0
  0.125000   0.125000 0
  0.500000   0.000000 0
  0.250000   0.875000 0
  0.125000   0.500000 0
  0.500000   0.375000 0
  0.125000   0.000000 0
  0.250000   0.750000 0
  0.250000   0.500000 0
  0.000000   0.875000 0
  0.875000   0.625000 0
  0.500000   0.750000 0
  0.750000   0.625000 0
  0.250000   0.000000 0
  0.375000   0.750000 0
  0.750000   0.875000 0
  0.625000   0.125000 0
  0.250000   0.250000 0
  0.375000   1.000000 0
  0.375000   0.250000 0
  0.000000   0.375000 0
  0.500000   1.000000 0
  0.875000   0.750000 0
  0.750000   0.000000 0
  0.375000   0.125000 0
  0.500000   0.875000 0
  0.000000   0.000000 0
  0.125000   0.750000 0
  0.500000   0.625000 0
  0.125000   0.250000 0
  0.500000   0.125000 0
  0.250000   1.000000 0
  0.250000   0.125000 0
  0.000000   1.000000 0
  0.375000   0.875000 0
  0.000000   0.750000 0
  0.375000   0.625000 0
  0.000000   0.250000 0
  0.125000   1.000000 0
  1.000000   0.375000 0
  0.500000   0.500000 0
  0.875000   0.375000 0
CELLS 64 320
4 56 71 58 63
4 27 58 69 63
4 41 69 32 63
4 76 33 68 40
4 27 44 58 37
4 79 31 44 37
4 56 38 68 21
4 56 58 38 37
4 52 32 71 63
4 47 38 31 37
4 76 68 59 21
4 22 59 43 21
4 65 45 33 40
4 47 43 38 21
4 52 71 45 40
4 56 68 71 40
4 74 30 66 23
4 46 66 29 23
4 22 43 30 23
4 72 48 77 34
4 46 53 42 73
4 50 64 53 73
4 70 42 57 73
4 74 66 48 34
4 46 42 66 34
4 47 29 43 23
4 70 77 42 34
4 60 57 64 73
4 79 67 31 75
4 47 31 29 75
4 50 53 67 75
4 46 29 53 75
4 10 78 6 80
4 36 6 1 80
4 15 1 12 80
4 36 4 6 26
4 14 12 78 80
4 2 17 9 26
4 36 18 4 55
4 15 28 1 11
4 62 4 20 55
4 10 6 17 26
4 27 18 44 11
4 62 9 4 26
4 27 69 18 55
4 36 1 18 11
4 41 20 69 55
4 79 44 28 11
4 16 24 54 7
4 19 54 39 7
4 50 39 64 7
4 8 25 61 3
4 60 64 24 7
4 79 28 67 13
4 19 51 61 49
4 8 61 0 49
4 15 51 28 13
4 19 39 51 13
4 50 67 39 13
4 19 61 54 3
4 14 0 12 49
4 5 35 25 3
4 15 12 51 49
4 16 54 35 3
CELL_TYPES 64
8
8
8
8
8
8
8
8
8
8
8
8
8
8
8
8
8
8
8
8
8
8
8
8
8
8
8
8
8
8
8
8
8
8
8
8
8
8
8
8
8
8
8
8
8
8
8
8
8
8
8
8
8
8
8
8
8
8
8
8
8
8
8
8
CELL_DATA 64
VECTORS vector_value float
1.39165 -1.45042 0
0.589159 -1.81573 0
0.498747 -3.03295 0
0.0204307 -0.0391869 0
0.0132122 -0.760403 0
-1.32108 -2.24134 0
-0.338596 -1.37286 0
-0.339842 -2.2207 0
0.419704 -1.48669 0
-1.32727 -1.65865 0
0.410602 -0.774165 0
-0.00350629 -0.883776 0
0.000191778 -0.0288803 0
-0.127347 -0.331465 0
0.0204052 -0.664291 0
1.08297 -2.02054 0
0.0284962 -0.340096 0
0.0325408 -0.875294 0
-0.270664 -0.796018 0
0.174318 -1.33475 0
0.443897 -0.417405 0
-0.326159 -2.96853 0
0.398182 -0.453836 0
0.125724 -0.472432 0
0.73248 -1.14695 0
-0.162187 -0.307267 0
-0.097889 -0.633929 0
0.388813 -1.34235 0
-0.319487 -2.81193 0
-0.0810833 -0.694781 0
0.363577 -2.66495 0
0.2282 -0.498583 0
0.0787817 -0.552745 0
0.307704 -0.145927 0
-0.00433532 -0.0145716 0
0.954534 -0.956284 0
-0.000153836 -0.455053 0
0.0139053 -1.34015 0
0.0542302 -0.561763 0
0.0551419 -1.04518 0
-0.00946214 -0.154844 0
0.350601 -1.02932 0
0.0077341 -0.340991 0
0.0353954 -0.828971 0
-0.0451524 -0.126754 0
1.12902 -1.83221 0
-0.048901 -0.463225 0
0.299317 -1.36996 0
-1.30497 -1.41436 0
-0.107451 -0.801744 0
-0.316 -1.43763 0
-0.115991 -0.61802 0
-0.947182 -1.63151 0
-0.226035 -1.64935 0
-0.064151 -0.030386 0
-0.0233936 -0.503762 0
0.120611 -1.2599 0
-0.192163 -0.697542 0
0.323643 -2.38939 0
-0.241941 -0.137292 0
-0.015799 -0.4739 0
-0.115561 -1.00941 0
-0.0235674 -0.00686007 0
-0.703109 -0.17986 0
