# vtk DataFile Version 2.0
Unstructured Grid by M++
ASCII
DATASET UNSTRUCTURED_GRID
POINTS 81 float
  1.000000   0.625000 0
  0.750000   0.375000 0
  1.000000   0.000000 0
  0.875000   0.875000 0
  0.750000   0.125000 0
  1.000000   1.000000 0
  0.875000   0.250000 0
  0.625000   0.875000 0
  1.000000   0.750000 0
  0.875000   0.000000 0
  1.000000   0.250000 0
  0.625000   0.375000 0
  0.875000   0.500000 0
  0.625000   0.625000 0
  1.000000   0.500000 0
  0.750000   0.500000 0
  0.750000   1.000000 0
  1.000000   0.125000 0
  0.625000   0.250000 0
  0.750000   0.750000 0
  0.625000   0.000000 0
  0.125000   0.375000 0
  0.000000   0.500000 0
  0.125000   0.625000 0
  0.625000   1.000000 0
  1.000000   0.875000 0
  0.875000   0.125000 0
  0.500000   0.250000 0
  0.625000   0.500000 0
  0.250000   0.625000 0
  0.000000   0.625000 0
  0.375000   0.500000 0
  0.375000   0.000000 0
  0.000000   0.125000 0
  0.125000   0.875000 0
  0.875000   1.000000 0
  0.750000   0.250000 0
  0.375000   0.375000 0
  0.250000   0.375000 0
  0.625000   0.750000 0
  0.125000   0.125000 0
  0.500000   0.000000 0
  0.250000   0.875000 0
  0.125000   0.500000 0
  0.500000   0.375000 0
  0.125000   0.000000 0
  0.250000   0.750000 0
  0.250000   0.500000 0
  0.000000   0.875000 0
  0.875000   0.625000 0
  0.500000   0.750000 0
  0.750000   0.625000 0
  0.250000   0.000000 0
  0.375000   0.750000 0
  0.750000   0.875000 0
  0.625000   0.125000 0
  0.250000   0.250000 0
  0.375000   1.000000 0
  0.375000   0.250000 0
  0.000000   0.375000 0
  0.500000   1.000000 0
  0.875000   0.750000 0
  0.750000   0.000000 0
  0.375000   0.125000 0
  0.500000   0.875000 0
  0.000000   0.000000 0
  0.125000   0.750000 0
  0.500000   0.625000 0
  0.125000   0.250000 0
  0.500000   0.125000 0
  0.250000   1.000000 0
  0.250000   0.125000 0
  0.000000   1.000000 0
  0.375000   0.875000 0
  0.000000   0.750000 0
  0.375000   0.625000 0
  0.000000   0.250000 0
  0.125000   1.000000 0
  1.000000   0.375000 0
  0.500000   0.500000 0
  0.875000   0.375000 0
CELLS 64 320
4 56 71 58 63
4 27 58 69 63
4 41 69 32 63
4 76 33 68 40
4 27 44 58 37
4 79 31 44 37
4 56 38 68 21
4 56 58 38 37
4 52 32 71 63
4 47 38 31 37
4 76 68 59 21
4 22 59 43 21
4 65 45 33 40
4 47 43 38 21
4 52 71 45 40
4 56 68 71 40
4 74 30 66 23
4 46 66 29 23
4 22 43 30 23
4 72 48 77 34
4 46 53 42 73
4 50 64 53 73
4 70 42 57 73
4 74 66 48 34
4 46 42 66 34
4 47 29 43 23
4 70 77 42 34
4 60 57 64 73
4 79 67 31 75
4 47 31 29 75
4 50 53 67 75
4 46 29 53 75
4 10 78 6 80
4 36 6 1 80
4 15 1 12 80
4 36 4 6 26
4 14 12 78 80
4 2 17 9 26
4 36 18 4 55
4 15 28 1 11
4 62 4 20 55
4 10 6 17 26
4 27 18 44 11
4 62 9 4 26
4 27 69 18 55
4 36 1 18 11
4 41 20 69 55
4 79 44 28 11
4 16 24 54 7
4 19 54 39 7
4 50 39 64 7
4 8 25 61 3
4 60 64 24 7
4 79 28 67 13
4 19 51 61 49
4 8 61 0 49
4 15 51 28 13
4 19 39 51 13
4 50 67 39 13
4 19 61 54 3
4 14 0 12 49
4 5 35 25 3
4 15 12 51 49
4 16 54 35 3
CELL_TYPES 64
8
8
8
8
8
8
8
8
8
8
8
8
8
8
8
8
8
8
8
8
8
8
8
8
8
8
8
8
8
8
8
8
8
8
8
8
8
8
8
8
8
8
8
8
8
8
8
8
8
8
8
8
8
8
8
8
8
8
8
8
8
8
8
8
CELL_DATA 64
VECTORS vector_value float
-0.300471 -1.21246 0
-0.0447818 -0.299588 0
0.183877 -0.54029 0
-0.170389 -0.456801 0
-0.582054 -0.603236 0
-0.594891 -1.94463 0
-0.475705 -0.437546 0
-1.94393 -2.86405 0
-0.0186601 -0.511959 0
-0.064873 -1.67967 0
-0.0761874 -0.179001 0
-0.00976054 -0.079316 0
-0.0754135 -0.705402 0
-0.0296232 -0.0870004 0
-0.119976 -2.37876 0
-1.18576 -2.20266 0
-0.00434743 -0.0396622 0
0.441571 -0.417123 0
-0.00618601 -0.0584665 0
0.23816 -1.09559 0
-0.235012 -0.688762 0
-0.00365692 -0.352598 0
-0.712664 -0.932924 0
0.238854 -0.226749 0
1.17914 -2.86473 0
-0.0227577 -0.0512093 0
-0.201671 -1.09666 0
-0.447259 -1.02364 0
0.444424 -1.75422 0
0.155485 -2.04394 0
0.708717 -0.672671 0
2.27687 -2.97748 0
-0.0118726 -1.5991 0
0.551269 -1.48122 0
0.352961 -0.944815 0
0.0204381 -2.5142 0
-0.00164423 -1.15265 0
0.172382 -1.46194 0
0.00448751 -0.0670906 0
0.51994 -1.62974 0
-0.0267407 -0.0430441 0
-0.00951359 -1.14304 0
-0.0838626 -0.119505 0
0.145644 -2.18216 0
-0.0289406 -0.104161 0
0.40949 -0.716332 0
0.00441937 -0.176446 0
-0.0587355 -0.482171 0
0.584761 -0.751661 0
-0.0398662 -1.3654 0
0.00257208 -0.0698463 0
-0.0312565 -1.01159 0
0.3273 -0.570189 0
0.084517 -0.378403 0
-0.106569 -1.19159 0
0.112637 -0.906 0
-0.00811108 -2.04515 0
-0.2828 -1.66151 0
0.0288298 -0.133971 0
-0.159641 -1.42033 0
0.04541 -1.29501 0
-0.0164432 -0.809184 0
0.029232 -0.373605 0
0.243958 -1.72015 0
