# vtk DataFile Version 2.0
Unstructured Grid by M++
ASCII
DATASET UNSTRUCTURED_GRID
POINTS 81 float
  1.000000   0.625000 0
  0.750000   0.375000 0
  1.000000   0.000000 0
  0.875000   0.875000 0
  0.750000   0.125000 0
  1.000000   1.000000 0
  0.875000   0.250000 0
  0.625000   0.875000 0
  1.000000   0.750000 0
  0.875000   0.000000 0
  1.000000   0.250000 0
  0.625000   0.375000 0
  0.875000   0.500000 0
  0.625000   0.625000 0
  1.000000   0.500000 0
  0.750000   0.500000 0
  0.750000   1.000000 0
  1.000000   0.125000 0
  0.625000   0.250000 0
  0.750000   0.750000 0
  0.625000   0.000000 0
  0.125000   0.375000 0
  0.000000   0.500000 0
  0.125000   0.625000 0
  0.625000   1.000000 0
  1.000000   0.875000 0
  0.875000   0.125000 0
  0.500000   0.250000 0
  0.625000   0.500000 0
  0.250000   0.625000 0
  0.000000   0.625000 0
  0.375000   0.500000 0
  0.375000   0.000000 0
  0.000000   0.125000 0
  0.125000   0.875000 0
  0.875000   1.000000 0
  0.750000   0.250000 0
  0.375000   0.375000 0
  0.250000   0.375000 0
  0.625000   0.750000 0
  0.125000   0.125000 0
  0.500000   0.000000 0
  0.250000   0.875000 0
  0.125000   0.500000 0
  0.500000   0.375000 0
  0.125000   0.000000 0
  0.250000   0.750000 0
  0.250000   0.500000 0
  0.000000   0.875000 0
  0.875000   0.625000 0
  0.500000   0.750000 0
  0.750000   0.625000 0
  0.250000   0.000000 0
  0.375000   0.750000 0
  0.750000   0.875000 0
  0.625000   0.125000 0
  0.250000   0.250000 0
  0.375000   1.000000 0
  0.375000   0.250000 0
  0.000000   0.375000 0
  0.500000   1.000000 0
  0.875000   0.750000 0
  0.750000   0.000000 0
  0.375000   0.125000 0
  0.500000   0.875000 0
  0.000000   0.000000 0
  0.125000   0.750000 0
  0.500000   0.625000 0
  0.125000   0.250000 0
  0.500000   0.125000 0
  0.250000   1.000000 0
  0.250000   0.125000 0
  0.000000   1.000000 0
  0.375000   0.875000 0
  0.000000   0.750000 0
  0.375000   0.625000 0
  0.000000   0.250000 0
  0.125000   1.000000 0
  1.000000   0.375000 0
  0.500000   0.500000 0
  0.875000   0.375000 0
CELLS 64 320
4 56 71 58 63
4 27 58 69 63
4 41 69 32 63
4 76 33 68 40
4 27 44 58 37
4 79 31 44 37
4 56 38 68 21
4 56 58 38 37
4 52 32 71 63
4 47 38 31 37
4 76 68 59 21
4 22 59 43 21
4 65 45 33 40
4 47 43 38 21
4 52 71 45 40
4 56 68 71 40
4 74 30 66 23
4 46 66 29 23
4 22 43 30 23
4 72 48 77 34
4 46 53 42 73
4 50 64 53 73
4 70 42 57 73
4 74 66 48 34
4 46 42 66 34
4 47 29 43 23
4 70 77 42 34
4 60 57 64 73
4 79 67 31 75
4 47 31 29 75
4 50 53 67 75
4 46 29 53 75
4 10 78 6 80
4 36 6 1 80
4 15 1 12 80
4 36 4 6 26
4 14 12 78 80
4 2 17 9 26
4 36 18 4 55
4 15 28 1 11
4 62 4 20 55
4 10 6 17 26
4 27 18 44 11
4 62 9 4 26
4 27 69 18 55
4 36 1 18 11
4 41 20 69 55
4 79 44 28 11
4 16 24 54 7
4 19 54 39 7
4 50 39 64 7
4 8 25 61 3
4 60 64 24 7
4 79 28 67 13
4 19 51 61 49
4 8 61 0 49
4 15 51 28 13
4 19 39 51 13
4 50 67 39 13
4 19 61 54 3
4 14 0 12 49
4 5 35 25 3
4 15 12 51 49
4 16 54 35 3
CELL_TYPES 64
8
8
8
8
8
8
8
8
8
8
8
8
8
8
8
8
8
8
8
8
8
8
8
8
8
8
8
8
8
8
8
8
8
8
8
8
8
8
8
8
8
8
8
8
8
8
8
8
8
8
8
8
8
8
8
8
8
8
8
8
8
8
8
8
CELL_DATA 64
VECTORS vector_value float
0.040584 -0.568083 0
0.278875 -0.432108 0
-0.0483638 -1.5903 0
0.0845871 -0.717281 0
-0.0398544 -0.675421 0
-0.138065 -0.48775 0
0.279105 -2.20739 0
0.045069 -0.880068 0
0.955762 -1.09232 0
-0.0104768 -0.570544 0
0.0815665 -0.934852 0
0.57053 -1.93066 0
-0.040998 -0.783147 0
0.579147 -1.43848 0
0.351633 -1.41506 0
0.214718 -2.59022 0
-0.30586 -2.99973 0
-0.15373 -0.235204 0
0.378283 -2.78651 0
-0.172599 -1.28265 0
-0.215884 -0.153402 0
-0.151501 -0.54385 0
-0.47838 -1.58892 0
-0.493917 -2.02812 0
-1.39057 -1.01055 0
0.276578 -0.572049 0
-0.0889491 -0.539759 0
0.0317121 -0.130828 0
-0.242403 -0.73736 0
-0.220216 -0.29304 0
-0.284133 -0.798118 0
-0.20153 -0.206091 0
0.0142089 -0.836862 0
-0.243483 -1.19314 0
-0.281637 -2.03029 0
-0.202511 -0.438685 0
0.0770891 -0.634806 0
-0.220955 -0.428404 0
-0.706215 -0.963861 0
-0.358738 -0.355667 0
0.0555843 -1.43522 0
-0.0263959 -0.851007 0
-0.049569 -0.431991 0
-0.389502 -0.554918 0
-0.152836 -1.43876 0
-0.206186 -0.840284 0
-0.186478 -0.700638 0
-0.326336 -0.551804 0
0.431667 -1.03942 0
0.198973 -0.985409 0
-0.281467 -0.807536 0
0.0885525 -0.989224 0
0.465583 -1.07705 0
-0.19671 -0.100612 0
0.0577854 -1.88717 0
-0.0224775 -0.910586 0
-0.27273 -0.694616 0
0.0678398 -0.777321 0
-0.0344077 -0.185779 0
0.14636 -1.4819 0
-0.118694 -0.901906 0
-0.113952 -0.682531 0
-0.106202 -1.9139 0
0.160134 -1.65885 0
