# vtk DataFile Version 2.0
Unstructured Grid by M++
ASCII
DATASET UNSTRUCTURED_GRID
POINTS 81 float
  1.000000   0.625000 0
  0.750000   0.375000 0
  1.000000   0.000000 0
  0.875000   0.875000 0
  0.750000   0.125000 0
  1.000000   1.000000 0
  0.875000   0.250000 0
  0.625000   0.875000 0
  1.000000   0.750000 0
  0.875000   0.000000 0
  1.000000   0.250000 0
  0.625000   0.375000 0
  0.875000   0.500000 0
  0.625000   0.625000 0
  1.000000   0.500000 0
  0.750000   0.500000 0
  0.750000   1.000000 0
  1.000000   0.125000 0
  0.625000   0.250000 0
  0.750000   0.750000 0
  0.625000   0.000000 0
  0.125000   0.375000 0
  0.000000   0.500000 0
  0.125000   0.625000 0
  0.625000   1.000000 0
  1.000000   0.875000 0
  0.875000   0.125000 0
  0.500000   0.250000 0
  0.625000   0.500000 0
  0.250000   0.625000 0
  0.000000   0.625000 0
  0.375000   0.500000 0
  0.375000   0.000000 0
  0.000000   0.125000 0
  0.125000   0.875000 0
  0.875000   1.000000 0
  0.750000   0.250000 0
  0.375000   0.375000 0
  0.250000   0.375000 0
  0.625000   0.750000 0
  0.125000   0.125000 0
  0.500000   0.000000 0
  0.250000   0.875000 0
  0.125000   0.500000 0
  0.500000   0.375000 0
  0.125000   0.000000 0
  0.250000   0.750000 0
  0.250000   0.500000 0
  0.000000   0.875000 0
  0.875000   0.625000 0
  0.500000   0.750000 0
  0.750000   0.625000 0
  0.250000   0.000000 0
  0.375000   0.750000 0
  0.750000   0.875000 0
  0.625000   0.125000 0
  0.250000   0.250000 0
  0.375000   1.000000 0
  0.375000   0.250000 0
  0.000000   0.375000 0
  0.500000   1.000000 0
  0.875000   0.750000 0
  0.750000   0.000000 0
  0.375000   0.125000 0
  0.500000   0.875000 0
  0.000000   0.000000 0
  0.125000   0.750000 0
  0.500000   0.625000 0
  0.125000   0.250000 0
  0.500000   0.125000 0
  0.250000   1.000000 0
  0.250000   0.125000 0
  0.000000   1.000000 0
  0.375000   0.875000 0
  0.000000   0.750000 0
  0.375000   0.625000 0
  0.000000   0.250000 0
  0.125000   1.000000 0
  1.000000   0.375000 0
  0.500000   0.500000 0
  0.875000   0.375000 0
CELLS 64 320
4 56 71 58 63
4 27 58 69 63
4 41 69 32 63
4 76 33 68 40
4 27 44 58 37
4 79 31 44 37
4 56 38 68 21
4 56 58 38 37
4 52 32 71 63
4 47 38 31 37
4 76 68 59 21
4 22 59 43 21
4 65 45 33 40
4 47 43 38 21
4 52 71 45 40
4 56 68 71 40
4 74 30 66 23
4 46 66 29 23
4 22 43 30 23
4 72 48 77 34
4 46 53 42 73
4 50 64 53 73
4 70 42 57 73
4 74 66 48 34
4 46 42 66 34
4 47 29 43 23
4 70 77 42 34
4 60 57 64 73
4 79 67 31 75
4 47 31 29 75
4 50 53 67 75
4 46 29 53 75
4 10 78 6 80
4 36 6 1 80
4 15 1 12 80
4 36 4 6 26
4 14 12 78 80
4 2 17 9 26
4 36 18 4 55
4 15 28 1 11
4 62 4 20 55
4 10 6 17 26
4 27 18 44 11
4 62 9 4 26
4 27 69 18 55
4 36 1 18 11
4 41 20 69 55
4 79 44 28 11
4 16 24 54 7
4 19 54 39 7
4 50 39 64 7
4 8 25 61 3
4 60 64 24 7
4 79 28 67 13
4 19 51 61 49
4 8 61 0 49
4 15 51 28 13
4 19 39 51 13
4 50 67 39 13
4 19 61 54 3
4 14 0 12 49
4 5 35 25 3
4 15 12 51 49
4 16 54 35 3
CELL_TYPES 64
8
8
8
8
8
8
8
8
8
8
8
8
8
8
8
8
8
8
8
8
8
8
8
8
8
8
8
8
8
8
8
8
8
8
8
8
8
8
8
8
8
8
8
8
8
8
8
8
8
8
8
8
8
8
8
8
8
8
8
8
8
8
8
8
CELL_DATA 64
VECTORS vector_value float
0.267872 -0.128219 0
1.17959 -1.39141 0
0.0762287 -1.04893 0
0.161071 -0.726458 0
0.769819 -0.819895 0
0.907553 -0.129694 0
1.47124 -0.525894 0
1.49041 -1.03393 0
0.214094 -0.460626 0
1.60461 -0.938041 0
0.716879 -1.61436 0
0.195944 -2.60193 0
0.000919536 -0.588497 0
0.520667 -0.743783 0
0.00362562 -0.306191 0
0.539124 -0.683768 0
-1.06041 -2.68137 0
-0.914199 -1.6935 0
0.149754 -2.99941 0
-0.0583586 -1.45478 0
-1.38122 -0.994582 0
-0.256405 -1.10668 0
-0.533749 -1.2341 0
0.100101 -0.883582 0
-1.08986 -2.50224 0
0.437552 -1.57757 0
-0.209134 -0.414322 0
-1.29109 -1.77568 0
0.22486 -0.111192 0
0.00755614 -0.263061 0
0.0223792 -0.418422 0
-0.258888 -0.483597 0
-0.171257 -1.10558 0
-0.325014 -2.12543 0
1.61513 -2.30874 0
-1.67104 -1.43601 0
0.290559 -0.350099 0
-0.0014166 -0.0587519 0
-2.19006 -1.7507 0
1.12077 -0.776515 0
-0.0965821 -1.91728 0
-0.152776 -0.194749 0
0.122293 -0.237356 0
-0.00537254 -0.183123 0
0.0730067 -1.68869 0
0.0400307 -0.537565 0
-0.134547 -3.4366 0
0.512297 -0.1512 0
-0.38728 -0.302381 0
-0.155212 -0.192708 0
-0.0474105 -0.387816 0
-0.119523 -0.382227 0
-1.11727 -0.705968 0
0.840324 -0.433461 0
-0.169634 -1.17694 0
-0.0355932 -0.24248 0
0.60479 -1.62787 0
-0.252036 -0.656438 0
0.106342 -0.647249 0
-0.396793 -1.55017 0
-0.0416425 -0.140607 0
-0.239212 -0.778627 0
-0.239967 -0.846839 0
-0.157885 -1.33414 0
