# vtk DataFile Version 2.0
Unstructured Grid by M++
ASCII
DATASET UNSTRUCTURED_GRID
POINTS 81 float
  1.000000   0.625000 0
  0.750000   0.375000 0
  1.000000   0.000000 0
  0.875000   0.875000 0
  0.750000   0.125000 0
  1.000000   1.000000 0
  0.875000   0.250000 0
  0.625000   0.875000 0
  1.000000   0.750000 0
  0.875000   0.000000 0
  1.000000   0.250000 0
  0.625000   0.375000 0
  0.875000   0.500000 0
  0.625000   0.625000 0
  1.000000   0.500000 0
  0.750000   0.500000 0
  0.750000   1.000000 0
  1.000000   0.125000 0
  0.625000   0.250000 0
  0.750000   0.750000 0
  0.625000   0.000000 0
  0.125000   0.375000 0
  0.000000   0.500000 0
  0.125000   0.625000 0
  0.625000   1.000000 0
  1.000000   0.875000 0
  0.875000   0.125000 0
  0.500000   0.250000 0
  0.625000   0.500000 0
  0.250000   0.625000 0
  0.000000   0.625000 0
  0.375000   0.500000 0
  0.375000   0.000000 0
  0.000000   0.125000 0
  0.125000   0.875000 0
  0.875000   1.000000 0
  0.750000   0.250000 0
  0.375000   0.375000 0
  0.250000   0.375000 0
  0.625000   0.750000 0
  0.125000   0.125000 0
  0.500000   0.000000 0
  0.250000   0.875000 0
  0.125000   0.500000 0
  0.500000   0.375000 0
  0.125000   0.000000 0
  0.250000   0.750000 0
  0.250000   0.500000 0
  0.000000   0.875000 0
  0.875000   0.625000 0
  0.500000   0.750000 0
  0.750000   0.625000 0
  0.250000   0.000000 0
  0.375000   0.750000 0
  0.750000   0.875000 0
  0.625000   0.125000 0
  0.250000   0.250000 0
  0.375000   1.000000 0
  0.375000   0.250000 0
  0.000000   0.375000 0
  0.500000   1.000000 0
  0.875000   0.750000 0
  0.750000   0.000000 0
  0.375000   0.125000 0
  0.500000   0.875000 0
  0.000000   0.000000 0
  0.125000   0.750000 0
  0.500000   0.625000 0
  0.125000   0.250000 0
  0.500000   0.125000 0
  0.250000   1.000000 0
  0.250000   0.125000 0
  0.000000   1.000000 0
  0.375000   0.875000 0
  0.000000   0.750000 0
  0.375000   0.625000 0
  0.000000   0.250000 0
  0.125000   1.000000 0
  1.000000   0.375000 0
  0.500000   0.500000 0
  0.875000   0.375000 0
CELLS 64 320
4 56 71 58 63
4 27 58 69 63
4 41 69 32 63
4 76 33 68 40
4 27 44 58 37
4 79 31 44 37
4 56 38 68 21
4 56 58 38 37
4 52 32 71 63
4 47 38 31 37
4 76 68 59 21
4 22 59 43 21
4 65 45 33 40
4 47 43 38 21
4 52 71 45 40
4 56 68 71 40
4 74 30 66 23
4 46 66 29 23
4 22 43 30 23
4 72 48 77 34
4 46 53 42 73
4 50 64 53 73
4 70 42 57 73
4 74 66 48 34
4 46 42 66 34
4 47 29 43 23
4 70 77 42 34
4 60 57 64 73
4 79 67 31 75
4 47 31 29 75
4 50 53 67 75
4 46 29 53 75
4 10 78 6 80
4 36 6 1 80
4 15 1 12 80
4 36 4 6 26
4 14 12 78 80
4 2 17 9 26
4 36 18 4 55
4 15 28 1 11
4 62 4 20 55
4 10 6 17 26
4 27 18 44 11
4 62 9 4 26
4 27 69 18 55
4 36 1 18 11
4 41 20 69 55
4 79 44 28 11
4 16 24 54 7
4 19 54 39 7
4 50 39 64 7
4 8 25 61 3
4 60 64 24 7
4 79 28 67 13
4 19 51 61 49
4 8 61 0 49
4 15 51 28 13
4 19 39 51 13
4 50 67 39 13
4 19 61 54 3
4 14 0 12 49
4 5 35 25 3
4 15 12 51 49
4 16 54 35 3
CELL_TYPES 64
8
8
8
8
8
8
8
8
8
8
8
8
8
8
8
8
8
8
8
8
8
8
8
8
8
8
8
8
8
8
8
8
8
8
8
8
8
8
8
8
8
8
8
8
8
8
8
8
8
8
8
8
8
8
8
8
8
8
8
8
8
8
8
8
CELL_DATA 64
VECTORS vector_value float
-0.0100851 -1.12729 0
0.208836 -2.6974 0
-0.00894989 -2.64737 0
-0.0487727 -0.161181 0
0.748903 -1.87901 0
0.489023 -1.38368 0
0.0568658 -0.535146 0
0.631477 -2.04237 0
-0.0206149 -1.01591 0
0.675475 -2.80911 0
-0.0175505 -0.0898201 0
0.18522 -0.288155 0
-0.0594599 -0.325593 0
0.482078 -0.66133 0
-0.0524425 -0.421658 0
-0.141803 -0.427887 0
-0.0364608 -0.458633 0
0.219835 -1.96789 0
0.0106266 -0.509571 0
0.3336 -0.464094 0
-0.267256 -0.621444 0
-0.408235 -1.6095 0
-0.152073 -1.12761 0
-0.0399085 -0.333529 0
-0.174614 -2.06576 0
0.353174 -0.995081 0
0.211744 -1.45468 0
-0.236401 -1.17983 0
-0.292688 -1.48724 0
0.399365 -2.22583 0
-0.0888306 -1.34902 0
-0.0149319 -1.0734 0
0.578681 -1.06343 0
1.04493 -1.45901 0
0.554014 -1.4288 0
0.079046 -0.788725 0
0.193661 -0.446733 0
0.0382583 -2.27019 0
0.297409 -0.327284 0
0.50078 -0.681504 0
0.0486742 -0.0689588 0
0.191668 -2.13644 0
0.532825 -0.561054 0
0.277372 -1.05383 0
0.117667 -0.33379 0
0.563982 -0.370167 0
0.00505914 -0.196482 0
0.244398 -0.30069 0
-1.23245 -1.19808 0
0.270102 -0.823569 0
-0.0247381 -1.68158 0
-0.0162644 -0.149397 0
-0.867283 -1.39755 0
0.0329375 -0.509043 0
0.13094 -0.939836 0
0.0292784 -0.204078 0
0.274346 -0.902965 0
0.143777 -0.912618 0
-0.048797 -1.09452 0
-0.0592282 -0.715213 0
0.0280713 -0.24627 0
-0.401881 -0.674697 0
0.163731 -1.12401 0
-0.847466 -0.503456 0
