# vtk DataFile Version 2.0
Unstructured Grid by M++
ASCII
DATASET UNSTRUCTURED_GRID
POINTS 81 float
  1.000000   0.625000 0
  0.750000   0.375000 0
  1.000000   0.000000 0
  0.875000   0.875000 0
  0.750000   0.125000 0
  1.000000   1.000000 0
  0.875000   0.250000 0
  0.625000   0.875000 0
  1.000000   0.750000 0
  0.875000   0.000000 0
  1.000000   0.250000 0
  0.625000   0.375000 0
  0.875000   0.500000 0
  0.625000   0.625000 0
  1.000000   0.500000 0
  0.750000   0.500000 0
  0.750000   1.000000 0
  1.000000   0.125000 0
  0.625000   0.250000 0
  0.750000   0.750000 0
  0.625000   0.000000 0
  0.125000   0.375000 0
  0.000000   0.500000 0
  0.125000   0.625000 0
  0.625000   1.000000 0
  1.000000   0.875000 0
  0.875000   0.125000 0
  0.500000   0.250000 0
  0.625000   0.500000 0
  0.250000   0.625000 0
  0.000000   0.625000 0
  0.375000   0.500000 0
  0.375000   0.000000 0
  0.000000   0.125000 0
  0.125000   0.875000 0
  0.875000   1.000000 0
  0.750000   0.250000 0
  0.375000   0.375000 0
  0.250000   0.375000 0
  0.625000   0.750000 0
  0.125000   0.125000 0
  0.500000   0.000000 0
  0.250000   0.875000 0
  0.125000   0.500000 0
  0.500000   0.375000 0
  0.125000   0.000000 0
  0.250000   0.750000 0
  0.250000   0.500000 0
  0.000000   0.875000 0
  0.875000   0.625000 0
  0.500000   0.750000 0
  0.750000   0.625000 0
  0.250000   0.000000 0
  0.375000   0.750000 0
  0.750000   0.875000 0
  0.625000   0.125000 0
  0.250000   0.250000 0
  0.375000   1.000000 0
  0.375000   0.250000 0
  0.000000   0.375000 0
  0.500000   1.000000 0
  0.875000   0.750000 0
  0.750000   0.000000 0
  0.375000   0.125000 0
  0.500000   0.875000 0
  0.000000   0.000000 0
  0.125000   0.750000 0
  0.500000   0.625000 0
  0.125000   0.250000 0
  0.500000   0.125000 0
  0.250000   1.000000 0
  0.250000   0.125000 0
  0.000000   1.000000 0
  0.375000   0.875000 0
  0.000000   0.750000 0
  0.375000   0.625000 0
  0.000000   0.250000 0
  0.125000   1.000000 0
  1.000000   0.375000 0
  0.500000   0.500000 0
  0.875000   0.375000 0
CELLS 64 320
4 56 71 58 63
4 27 58 69 63
4 41 69 32 63
4 76 33 68 40
4 27 44 58 37
4 79 31 44 37
4 56 38 68 21
4 56 58 38 37
4 52 32 71 63
4 47 38 31 37
4 76 68 59 21
4 22 59 43 21
4 65 45 33 40
4 47 43 38 21
4 52 71 45 40
4 56 68 71 40
4 74 30 66 23
4 46 66 29 23
4 22 43 30 23
4 72 48 77 34
4 46 53 42 73
4 50 64 53 73
4 70 42 57 73
4 74 66 48 34
4 46 42 66 34
4 47 29 43 23
4 70 77 42 34
4 60 57 64 73
4 79 67 31 75
4 47 31 29 75
4 50 53 67 75
4 46 29 53 75
4 10 78 6 80
4 36 6 1 80
4 15 1 12 80
4 36 4 6 26
4 14 12 78 80
4 2 17 9 26
4 36 18 4 55
4 15 28 1 11
4 62 4 20 55
4 10 6 17 26
4 27 18 44 11
4 62 9 4 26
4 27 69 18 55
4 36 1 18 11
4 41 20 69 55
4 79 44 28 11
4 16 24 54 7
4 19 54 39 7
4 50 39 64 7
4 8 25 61 3
4 60 64 24 7
4 79 28 67 13
4 19 51 61 49
4 8 61 0 49
4 15 51 28 13
4 19 39 51 13
4 50 67 39 13
4 19 61 54 3
4 14 0 12 49
4 5 35 25 3
4 15 12 51 49
4 16 54 35 3
CELL_TYPES 64
8
8
8
8
8
8
8
8
8
8
8
8
8
8
8
8
8
8
8
8
8
8
8
8
8
8
8
8
8
8
8
8
8
8
8
8
8
8
8
8
8
8
8
8
8
8
8
8
8
8
8
8
8
8
8
8
8
8
8
8
8
8
8
8
CELL_DATA 64
VECTORS vector_value float
0.829921 -2.5044 0
-1.13173 -1.50339 0
-0.0757149 -2.14263 0
0.271269 -0.574035 0
-0.35729 -0.604617 0
-0.171055 -1.01666 0
0.811619 -1.96644 0
-0.332614 -0.793531 0
0.110171 -3.69119 0
-0.069564 -0.328662 0
0.54849 -1.64247 0
0.0738532 -2.41213 0
0.00848053 -0.37801 0
-0.795273 -1.1046 0
0.0421383 -0.899396 0
1.38833 -1.85905 0
0.0132135 -0.612216 0
-0.614736 -1.03529 0
-0.752008 -1.86204 0
0.0555136 -1.42927 0
0.152607 -0.395954 0
0.09713 -2.46058 0
0.604925 -0.742432 0
0.0935969 -0.777255 0
0.419606 -0.770874 0
-0.571796 -0.212442 0
-0.000575067 -0.23983 0
0.218292 -1.84604 0
-0.587082 -1.4683 0
-1.42248 -1.29243 0
-0.545081 -2.01159 0
-0.477603 -0.669161 0
0.00467822 -0.102675 0
-0.088618 -0.230568 0
-0.410446 -0.620119 0
0.00840236 -0.0677528 0
-0.0805272 -0.176779 0
0.0229071 -0.201041 0
-0.0429999 -0.418454 0
-0.274845 -1.07745 0
0.0483102 -0.38399 0
0.0196184 -0.154426 0
-0.882883 -1.77619 0
0.0657329 -0.102857 0
-0.73152 -0.918495 0
-0.613014 -0.883513 0
-0.0326597 -0.200884 0
-0.0718532 -1.2636 0
-0.450894 -0.437182 0
-0.185774 -0.207228 0
-0.250998 -1.58572 0
0.0439941 -1.51998 0
-0.485655 -1.24165 0
0.0191811 -1.54153 0
-0.309746 -0.179042 0
-0.265835 -1.29269 0
-0.101278 -0.42938 0
-0.375561 -0.312337 0
-0.280726 -1.88768 0
-0.103036 -0.282419 0
-0.326415 -0.628707 0
0.185918 -1.22528 0
-0.576171 -0.565168 0
0.177305 -0.83832 0
