# vtk DataFile Version 2.0
Unstructured Grid by M++
ASCII
DATASET UNSTRUCTURED_GRID
POINTS 81 float
  1.000000   0.625000 0
  0.750000   0.375000 0
  1.000000   0.000000 0
  0.875000   0.875000 0
  0.750000   0.125000 0
  1.000000   1.000000 0
  0.875000   0.250000 0
  0.625000   0.875000 0
  1.000000   0.750000 0
  0.875000   0.000000 0
  1.000000   0.250000 0
  0.625000   0.375000 0
  0.875000   0.500000 0
  0.625000   0.625000 0
  1.000000   0.500000 0
  0.750000   0.500000 0
  0.750000   1.000000 0
  1.000000   0.125000 0
  0.625000   0.250000 0
  0.750000   0.750000 0
  0.625000   0.000000 0
  0.125000   0.375000 0
  0.000000   0.500000 0
  0.125000   0.625000 0
  0.625000   1.000000 0
  1.000000   0.875000 0
  0.875000   0.125000 0
  0.500000   0.250000 0
  0.625000   0.500000 0
  0.250000   0.625000 0
  0.000000   0.625000 0
  0.375000   0.500000 0
  0.375000   0.000000 0
  0.000000   0.125000 0
  0.125000   0.875000 0
  0.875000   1.000000 0
  0.750000   0.250000 0
  0.375000   0.375000 0
  0.250000   0.375000 0
  0.625000   0.750000 0
  0.125000   0.125000 0
  0.500000   0.000000 0
  0.250000   0.875000 0
  0.125000   0.500000 0
  0.500000   0.375000 0
  0.125000   0.000000 0
  0.250000   0.750000 0
  0.250000   0.500000 0
  0.000000   0.875000 0
  0.875000   0.625000 0
  0.500000   0.750000 0
  0.750000   0.625000 0
  0.250000   0.000000 0
  0.375000   0.750000 0
  0.750000   0.875000 0
  0.625000   0.125000 0
  0.250000   0.250000 0
  0.375000   1.000000 0
  0.375000   0.250000 0
  0.000000   0.375000 0
  0.500000   1.000000 0
  0.875000   0.750000 0
  0.750000   0.000000 0
  0.375000   0.125000 0
  0.500000   0.875000 0
  0.000000   0.000000 0
  0.125000   0.750000 0
  0.500000   0.625000 0
  0.125000   0.250000 0
  0.500000   0.125000 0
  0.250000   1.000000 0
  0.250000   0.125000 0
  0.000000   1.000000 0
  0.375000   0.875000 0
  0.000000   0.750000 0
  0.375000   0.625000 0
  0.000000   0.250000 0
  0.125000   1.000000 0
  1.000000   0.375000 0
  0.500000   0.500000 0
  0.875000   0.375000 0
CELLS 64 320
4 56 71 58 63
4 27 58 69 63
4 41 69 32 63
4 76 33 68 40
4 27 44 58 37
4 79 31 44 37
4 56 38 68 21
4 56 58 38 37
4 52 32 71 63
4 47 38 31 37
4 76 68 59 21
4 22 59 43 21
4 65 45 33 40
4 47 43 38 21
4 52 71 45 40
4 56 68 71 40
4 74 30 66 23
4 46 66 29 23
4 22 43 30 23
4 72 48 77 34
4 46 53 42 73
4 50 64 53 73
4 70 42 57 73
4 74 66 48 34
4 46 42 66 34
4 47 29 43 23
4 70 77 42 34
4 60 57 64 73
4 79 67 31 75
4 47 31 29 75
4 50 53 67 75
4 46 29 53 75
4 10 78 6 80
4 36 6 1 80
4 15 1 12 80
4 36 4 6 26
4 14 12 78 80
4 2 17 9 26
4 36 18 4 55
4 15 28 1 11
4 62 4 20 55
4 10 6 17 26
4 27 18 44 11
4 62 9 4 26
4 27 69 18 55
4 36 1 18 11
4 41 20 69 55
4 79 44 28 11
4 16 24 54 7
4 19 54 39 7
4 50 39 64 7
4 8 25 61 3
4 60 64 24 7
4 79 28 67 13
4 19 51 61 49
4 8 61 0 49
4 15 51 28 13
4 19 39 51 13
4 50 67 39 13
4 19 61 54 3
4 14 0 12 49
4 5 35 25 3
4 15 12 51 49
4 16 54 35 3
CELL_TYPES 64
8
8
8
8
8
8
8
8
8
8
8
8
8
8
8
8
8
8
8
8
8
8
8
8
8
8
8
8
8
8
8
8
8
8
8
8
8
8
8
8
8
8
8
8
8
8
8
8
8
8
8
8
8
8
8
8
8
8
8
8
8
8
8
8
CELL_DATA 64
VECTORS vector_value float
-0.158511 -2.31578 0
0.0521869 -0.586825 0
0.0734544 -0.384199 0
-0.0888287 -0.608695 0
-0.167651 -1.28727 0
-1.09007 -2.99978 0
-0.532211 -0.455135 0
-1.22554 -2.69907 0
-0.226353 -1.78782 0
-0.340297 -1.31342 0
-0.187727 -0.313709 0
0.00545748 -0.093321 0
-0.193508 -0.981157 0
-0.0825878 -0.333156 0
-0.431899 -0.998743 0
-0.270743 -0.833012 0
0.0587877 -0.255149 0
0.35936 -0.579751 0
0.0314789 -0.153815 0
0.25573 -0.619048 0
0.499492 -0.810573 0
0.0334439 -0.100051 0
0.0996438 -0.534201 0
0.0957801 -0.397992 0
0.633982 -1.4391 0
0.0734408 -0.179067 0
0.198147 -1.6013 0
0.786807 -0.450897 0
-0.471788 -1.68143 0
0.272251 -1.18039 0
0.336045 -0.698184 0
0.667777 -1.22436 0
0.0119078 -0.109561 0
0.0283339 -0.0652163 0
0.0430188 -0.0215549 0
0.00549337 -0.0404267 0
0.0195374 -0.101574 0
0.014265 -0.167009 0
-0.00990147 -0.0856725 0
-0.0272987 -0.542301 0
0.00529395 -0.0417497 0
0.00682625 -0.140618 0
0.0344816 -2.81815 0
0.028555 -0.0399608 0
0.0829846 -3.38897 0
-0.097462 -0.251884 0
0.0753636 -3.59937 0
-0.189108 -2.5949 0
-0.699696 -1.2162 0
-0.186545 -2.28742 0
-0.0547064 -2.29304 0
-0.0504857 -0.104451 0
0.590652 -2.33484 0
-1.30234 -4.22353 0
-0.136517 -0.159809 0
-0.00958284 -0.0540551 0
-0.159412 -0.484734 0
-1.09625 -1.69692 0
-0.676368 -3.33177 0
-0.482644 -0.56737 0
0.00549318 -0.0640909 0
-0.412079 -0.731038 0
0.00176337 -0.0329486 0
-0.796256 -0.512473 0
