# vtk DataFile Version 2.0
Unstructured Grid by M++
ASCII
DATASET UNSTRUCTURED_GRID
POINTS 81 float
  1.000000   0.625000 0
  0.750000   0.375000 0
  1.000000   0.000000 0
  0.875000   0.875000 0
  0.750000   0.125000 0
  1.000000   1.000000 0
  0.875000   0.250000 0
  0.625000   0.875000 0
  1.000000   0.750000 0
  0.875000   0.000000 0
  1.000000   0.250000 0
  0.625000   0.375000 0
  0.875000   0.500000 0
  0.625000   0.625000 0
  1.000000   0.500000 0
  0.750000   0.500000 0
  0.750000   1.000000 0
  1.000000   0.125000 0
  0.625000   0.250000 0
  0.750000   0.750000 0
  0.625000   0.000000 0
  0.125000   0.375000 0
  0.000000   0.500000 0
  0.125000   0.625000 0
  0.625000   1.000000 0
  1.000000   0.875000 0
  0.875000   0.125000 0
  0.500000   0.250000 0
  0.625000   0.500000 0
  0.250000   0.625000 0
  0.000000   0.625000 0
  0.375000   0.500000 0
  0.375000   0.000000 0
  0.000000   0.125000 0
  0.125000   0.875000 0
  0.875000   1.000000 0
  0.750000   0.250000 0
  0.375000   0.375000 0
  0.250000   0.375000 0
  0.625000   0.750000 0
  0.125000   0.125000 0
  0.500000   0.000000 0
  0.250000   0.875000 0
  0.125000   0.500000 0
  0.500000   0.375000 0
  0.125000   0.000000 0
  0.250000   0.750000 0
  0.250000   0.500000 0
  0.000000   0.875000 0
  0.875000   0.625000 0
  0.500000   0.750000 0
  0.750000   0.625000 0
  0.250000   0.000000 0
  0.375000   0.750000 0
  0.750000   0.875000 0
  0.625000   0.125000 0
  0.250000   0.250000 0
  0.375000   1.000000 0
  0.375000   0.250000 0
  0.000000   0.375000 0
  0.500000   1.000000 0
  0.875000   0.750000 0
  0.750000   0.000000 0
  0.375000   0.125000 0
  0.500000   0.875000 0
  0.000000   0.000000 0
  0.125000   0.750000 0
  0.500000   0.625000 0
  0.125000   0.250000 0
  0.500000   0.125000 0
  0.250000   1.000000 0
  0.250000   0.125000 0
  0.000000   1.000000 0
  0.375000   0.875000 0
  0.000000   0.750000 0
  0.375000   0.625000 0
  0.000000   0.250000 0
  0.125000   1.000000 0
  1.000000   0.375000 0
  0.500000   0.500000 0
  0.875000   0.375000 0
CELLS 64 320
4 56 71 58 63
4 27 58 69 63
4 41 69 32 63
4 76 33 68 40
4 27 44 58 37
4 79 31 44 37
4 56 38 68 21
4 56 58 38 37
4 52 32 71 63
4 47 38 31 37
4 76 68 59 21
4 22 59 43 21
4 65 45 33 40
4 47 43 38 21
4 52 71 45 40
4 56 68 71 40
4 74 30 66 23
4 46 66 29 23
4 22 43 30 23
4 72 48 77 34
4 46 53 42 73
4 50 64 53 73
4 70 42 57 73
4 74 66 48 34
4 46 42 66 34
4 47 29 43 23
4 70 77 42 34
4 60 57 64 73
4 79 67 31 75
4 47 31 29 75
4 50 53 67 75
4 46 29 53 75
4 10 78 6 80
4 36 6 1 80
4 15 1 12 80
4 36 4 6 26
4 14 12 78 80
4 2 17 9 26
4 36 18 4 55
4 15 28 1 11
4 62 4 20 55
4 10 6 17 26
4 27 18 44 11
4 62 9 4 26
4 27 69 18 55
4 36 1 18 11
4 41 20 69 55
4 79 44 28 11
4 16 24 54 7
4 19 54 39 7
4 50 39 64 7
4 8 25 61 3
4 60 64 24 7
4 79 28 67 13
4 19 51 61 49
4 8 61 0 49
4 15 51 28 13
4 19 39 51 13
4 50 67 39 13
4 19 61 54 3
4 14 0 12 49
4 5 35 25 3
4 15 12 51 49
4 16 54 35 3
CELL_TYPES 64
8
8
8
8
8
8
8
8
8
8
8
8
8
8
8
8
8
8
8
8
8
8
8
8
8
8
8
8
8
8
8
8
8
8
8
8
8
8
8
8
8
8
8
8
8
8
8
8
8
8
8
8
8
8
8
8
8
8
8
8
8
8
8
8
CELL_DATA 64
VECTORS vector_value float
0.000954205 -0.698668 0
0.131407 -0.174081 0
0.0957475 -0.377622 0
-0.00715744 -0.569773 0
0.358772 -0.0924962 0
0.457372 -0.14589 0
0.328125 -0.47535 0
0.479946 -0.819591 0
-0.0121773 -0.215414 0
0.61086 -0.49181 0
0.170093 -0.818298 0
0.212195 -1.04864 0
-0.116016 -0.777855 0
0.677338 -0.975476 0
-0.233857 -0.570651 0
-0.0387263 -0.515642 0
-0.177547 -1.01183 0
-0.206008 -1.01889 0
-0.115449 -1.34289 0
0.0873041 -1.00662 0
-0.0864283 -0.982745 0
0.105133 -0.220969 0
0.108814 -0.930137 0
0.0383141 -0.70566 0
0.00641738 -1.26527 0
-0.224924 -0.947688 0
0.0894776 -0.90026 0
0.392931 -0.917608 0
0.157354 -0.0615587 0
-0.0207718 -0.523724 0
0.0645101 -0.0580613 0
-0.0394385 -0.909295 0
-0.3722 -2.79817 0
-0.771476 -1.66617 0
-0.166411 -0.514522 0
0.609844 -2.87069 0
-0.597629 -4.18128 0
0.528247 -3.35431 0
0.386077 -0.794323 0
0.00794998 -0.522482 0
0.0483044 -0.32751 0
0.0163832 -2.21825 0
0.517733 -0.224696 0
0.406903 -2.22757 0
0.0939139 -0.158569 0
0.361068 -1.10523 0
0.00340086 -0.149076 0
0.173143 -0.119904 0
1.1555 -1.06757 0
0.718652 -0.976177 0
0.337154 -0.190956 0
0.108807 -0.893276 0
1.0223 -0.43455 0
0.174104 -0.0331219 0
1.73752 -3.22685 0
0.36251 -1.24135 0
0.080483 -0.338528 0
0.495647 -0.453639 0
0.162743 -0.0800911 0
0.457541 -2.76494 0
1.334 -3.93713 0
-0.11492 -0.776158 0
0.320445 -0.815358 0
0.441541 -1.9671 0
