# vtk DataFile Version 2.0
Unstructured Grid by M++
ASCII
DATASET UNSTRUCTURED_GRID
POINTS 81 float
  1.000000   0.625000 0
  0.750000   0.375000 0
  1.000000   0.000000 0
  0.875000   0.875000 0
  0.750000   0.125000 0
  1.000000   1.000000 0
  0.875000   0.250000 0
  0.625000   0.875000 0
  1.000000   0.750000 0
  0.875000   0.000000 0
  1.000000   0.250000 0
  0.625000   0.375000 0
  0.875000   0.500000 0
  0.625000   0.625000 0
  1.000000   0.500000 0
  0.750000   0.500000 0
  0.750000   1.000000 0
  1.000000   0.125000 0
  0.625000   0.250000 0
  0.750000   0.750000 0
  0.625000   0.000000 0
  0.125000   0.375000 0
  0.000000   0.500000 0
  0.125000   0.625000 0
  0.625000   1.000000 0
  1.000000   0.875000 0
  0.875000   0.125000 0
  0.500000   0.250000 0
  0.625000   0.500000 0
  0.250000   0.625000 0
  0.000000   0.625000 0
  0.375000   0.500000 0
  0.375000   0.000000 0
  0.000000   0.125000 0
  0.125000   0.875000 0
  0.875000   1.000000 0
  0.750000   0.250000 0
  0.375000   0.375000 0
  0.250000   0.375000 0
  0.625000   0.750000 0
  0.125000   0.125000 0
  0.500000   0.000000 0
  0.250000   0.875000 0
  0.125000   0.500000 0
  0.500000   0.375000 0
  0.125000   0.000000 0
  0.250000   0.750000 0
  0.250000   0.500000 0
  0.000000   0.875000 0
  0.875000   0.625000 0
  0.500000   0.750000 0
  0.750000   0.625000 0
  0.250000   0.000000 0
  0.375000   0.750000 0
  0.750000   0.875000 0
  0.625000   0.125000 0
  0.250000   0.250000 0
  0.375000   1.000000 0
  0.375000   0.250000 0
  0.000000   0.375000 0
  0.500000   1.000000 0
  0.875000   0.750000 0
  0.750000   0.000000 0
  0.375000   0.125000 0
  0.500000   0.875000 0
  0.000000   0.000000 0
  0.125000   0.750000 0
  0.500000   0.625000 0
  0.125000   0.250000 0
  0.500000   0.125000 0
  0.250000   1.000000 0
  0.250000   0.125000 0
  0.000000   1.000000 0
  0.375000   0.875000 0
  0.000000   0.750000 0
  0.375000   0.625000 0
  0.000000   0.250000 0
  0.125000   1.000000 0
  1.000000   0.375000 0
  0.500000   0.500000 0
  0.875000   0.375000 0
CELLS 64 320
4 56 71 58 63
4 27 58 69 63
4 41 69 32 63
4 76 33 68 40
4 27 44 58 37
4 79 31 44 37
4 56 38 68 21
4 56 58 38 37
4 52 32 71 63
4 47 38 31 37
4 76 68 59 21
4 22 59 43 21
4 65 45 33 40
4 47 43 38 21
4 52 71 45 40
4 56 68 71 40
4 74 30 66 23
4 46 66 29 23
4 22 43 30 23
4 72 48 77 34
4 46 53 42 73
4 50 64 53 73
4 70 42 57 73
4 74 66 48 34
4 46 42 66 34
4 47 29 43 23
4 70 77 42 34
4 60 57 64 73
4 79 67 31 75
4 47 31 29 75
4 50 53 67 75
4 46 29 53 75
4 10 78 6 80
4 36 6 1 80
4 15 1 12 80
4 36 4 6 26
4 14 12 78 80
4 2 17 9 26
4 36 18 4 55
4 15 28 1 11
4 62 4 20 55
4 10 6 17 26
4 27 18 44 11
4 62 9 4 26
4 27 69 18 55
4 36 1 18 11
4 41 20 69 55
4 79 44 28 11
4 16 24 54 7
4 19 54 39 7
4 50 39 64 7
4 8 25 61 3
4 60 64 24 7
4 79 28 67 13
4 19 51 61 49
4 8 61 0 49
4 15 51 28 13
4 19 39 51 13
4 50 67 39 13
4 19 61 54 3
4 14 0 12 49
4 5 35 25 3
4 15 12 51 49
4 16 54 35 3
CELL_TYPES 64
8
8
8
8
8
8
8
8
8
8
8
8
8
8
8
8
8
8
8
8
8
8
8
8
8
8
8
8
8
8
8
8
8
8
8
8
8
8
8
8
8
8
8
8
8
8
8
8
8
8
8
8
8
8
8
8
8
8
8
8
8
8
8
8
CELL_DATA 64
VECTORS vector_value float
-0.00550419 -0.599255 0
-0.212099 -1.87265 0
-0.0568217 -1.87856 0
0.00572588 -0.429692 0
-0.235243 -1.51024 0
0.00629497 -0.857189 0
0.157745 -0.333387 0
0.178563 -0.504812 0
-0.0589507 -0.734248 0
0.167364 -0.292859 0
0.0342214 -0.472641 0
0.070757 -0.675776 0
-0.0489061 -0.52235 0
0.177304 -0.431666 0
-0.0500834 -0.181408 0
0.0223034 -0.242181 0
0.14413 -1.09302 0
0.0802532 -0.445444 0
0.0469023 -0.631762 0
0.07608 -0.820008 0
0.0950938 -0.313749 0
0.727439 -1.19924 0
0.607628 -0.845922 0
-0.098236 -0.909916 0
-0.0316146 -0.784788 0
0.315777 -0.800196 0
0.206915 -0.986725 0
0.671711 -1.32501 0
0.137525 -0.462645 0
0.308837 -0.277219 0
0.0744376 -0.168412 0
0.126264 -0.440381 0
0.00444372 -0.514934 0
-0.458999 -2.10075 0
0.190427 -2.00275 0
-0.184551 -0.967932 0
-0.213714 -0.956723 0
0.0058801 -0.886545 0
-0.969205 -0.753467 0
-0.0733274 -1.2294 0
-0.115717 -0.395389 0
0.141022 -0.810859 0
-0.339797 -1.30042 0
-0.0312681 -0.548856 0
-1.00647 -2.32396 0
-0.778689 -1.26282 0
-0.142043 -2.85264 0
-0.494448 -1.55364 0
0.45055 -1.52751 0
0.100502 -2.26518 0
0.56704 -0.604796 0
-0.117397 -0.498313 0
0.704027 -0.4703 0
-0.120383 -0.97732 0
0.128157 -1.17973 0
0.0169816 -0.354669 0
0.315248 -2.88593 0
0.18445 -3.03188 0
0.565508 -1.28648 0
-0.328103 -1.42402 0
0.30405 -0.902798 0
-0.197014 -0.852388 0
0.510537 -1.06213 0
-0.170438 -1.17214 0
