# vtk DataFile Version 2.0
Unstructured Grid by M++
ASCII
DATASET UNSTRUCTURED_GRID
POINTS 289 float
  0.562500   1.000000 0
  0.562500   0.625000 0
  0.625000   1.000000 0
  0.562500   0.937500 0
  0.562500   0.562500 0
  0.625000   0.937500 0
  0.562500   0.875000 0
  0.625000   0.750000 0
  0.625000   0.625000 0
  0.562500   0.812500 0
  0.562500   0.750000 0
  0.562500   0.687500 0
  0.625000   0.875000 0
  0.625000   0.812500 0
  0.625000   0.687500 0
  0.687500   0.125000 0
  0.875000   0.062500 0
  0.625000   0.125000 0
  0.625000   0.187500 0
  0.625000   0.250000 0
  0.812500   0.187500 0
  1.000000   0.125000 0
  0.687500   0.187500 0
  0.750000   0.125000 0
  0.937500   0.062500 0
  0.937500   0.125000 0
  0.750000   0.187500 0
  0.812500   0.062500 0
  0.812500   0.125000 0
  0.875000   0.687500 0
  0.187500   0.250000 0
  0.437500   0.250000 0
  0.375000   0.187500 0
  0.812500   0.625000 0
  0.125000   0.187500 0
  0.937500   0.750000 0
  0.250000   0.312500 0
  0.500000   0.312500 0
  0.625000   0.062500 0
  0.437500   0.500000 0
  0.375000   0.125000 0
  0.437500   0.187500 0
  0.437500   0.437500 0
  0.437500   0.375000 0
  0.875000   0.875000 0
  0.187500   0.375000 0
  0.687500   0.562500 0
  0.687500   0.625000 0
  0.000000   0.125000 0
  0.937500   0.625000 0
  0.250000   0.125000 0
  0.375000   0.062500 0
  0.375000   0.000000 0
  0.812500   0.500000 0
  0.125000   0.000000 0
  0.937500   0.937500 0
  0.250000   0.437500 0
  0.687500   0.875000 0
  0.687500   0.937500 0
  0.000000   0.437500 0
  0.500000   0.500000 0
  0.500000   0.437500 0
  0.750000   0.937500 0
  0.750000   1.000000 0
  0.062500   0.500000 0
  1.000000   1.000000 0
  0.312500   0.500000 0
  0.875000   0.562500 0
  0.187500   0.062500 0
  0.437500   0.125000 0
  0.437500   0.062500 0
  0.500000   0.375000 0
  0.937500   0.812500 0
  0.937500   0.875000 0
  0.250000   0.375000 0
  0.687500   0.812500 0
  0.000000   0.375000 0
  0.750000   0.562500 0
  0.062500   0.125000 0
  1.000000   0.562500 0
  1.000000   0.625000 0
  0.312500   0.125000 0
  0.562500   0.125000 0
  0.437500   0.000000 0
  0.875000   0.437500 0
  0.875000   0.500000 0
  0.187500   0.000000 0
  0.937500   0.562500 0
  0.937500   0.500000 0
  0.250000   0.062500 0
  0.687500   0.500000 0
  0.000000   0.062500 0
  0.500000   0.062500 0
  1.000000   0.875000 0
  1.000000   0.937500 0
  0.312500   0.437500 0
  0.750000   0.875000 0
  0.062500   0.437500 0
  0.812500   0.937500 0
  0.125000   0.500000 0
  0.375000   0.500000 0
  0.625000   0.562500 0
  0.625000   0.500000 0
  0.437500   0.312500 0
  0.875000   0.812500 0
  0.875000   0.750000 0
  0.187500   0.312500 0
  0.812500   0.687500 0
  0.812500   0.750000 0
  0.125000   0.250000 0
  0.375000   0.250000 0
  1.000000   0.687500 0
  0.312500   0.187500 0
  0.750000   0.687500 0
  0.750000   0.625000 0
  0.062500   0.187500 0
  0.562500   0.250000 0
  0.562500   0.187500 0
  0.375000   1.000000 0
  0.500000   0.562500 0
  0.500000   0.250000 0
  0.750000   0.250000 0
  0.500000   0.125000 0
  0.500000   0.187500 0
  1.000000   0.187500 0
  0.625000   0.375000 0
  0.875000   0.375000 0
  1.000000   0.437500 0
  0.312500   0.000000 0
  0.562500   0.000000 0
  0.812500   0.000000 0
  0.250000   0.687500 0
  0.000000   0.687500 0
  0.500000   1.000000 0
  0.250000   1.000000 0
  0.000000   1.000000 0
  0.437500   0.687500 0
  0.437500   0.625000 0
  0.187500   0.625000 0
  0.687500   0.750000 0
  0.000000   0.312500 0
  0.000000   0.250000 0
  0.375000   0.375000 0
  0.375000   0.312500 0
  0.812500   0.812500 0
  0.125000   0.312500 0
  0.875000   0.625000 0
  0.187500   0.187500 0
  0.187500   0.125000 0
  0.937500   1.000000 0
  0.250000   0.562500 0
  0.250000   0.500000 0
  0.687500   1.000000 0
  0.000000   0.500000 0
  0.687500   0.687500 0
  0.000000   0.187500 0
  0.937500   0.687500 0
  0.250000   0.250000 0
  0.250000   0.187500 0
  0.187500   0.687500 0
  0.000000   0.750000 0
  0.250000   0.750000 0
  0.125000   0.625000 0
  0.750000   0.750000 0
  0.062500   0.250000 0
  0.875000   0.937500 0
  0.187500   0.500000 0
  0.187500   0.437500 0
  0.812500   0.562500 0
  0.125000   0.125000 0
  0.125000   0.062500 0
  0.375000   0.625000 0
  0.375000   0.687500 0
  1.000000   0.750000 0
  0.312500   0.250000 0
  0.312500   0.312500 0
  0.812500   0.312500 0
  0.562500   0.312500 0
  0.375000   0.750000 0
  0.500000   0.625000 0
  0.250000   0.625000 0
  0.312500   0.687500 0
  0.750000   0.812500 0
  0.062500   0.312500 0
  0.062500   0.375000 0
  1.000000   0.812500 0
  0.312500   0.375000 0
  0.562500   0.375000 0
  0.687500   0.437500 0
  0.000000   0.000000 0
  0.500000   0.000000 0
  0.937500   0.437500 0
  0.250000   0.000000 0
  0.375000   0.437500 0
  0.812500   0.875000 0
  0.125000   0.375000 0
  0.125000   0.437500 0
  0.625000   0.437500 0
  1.000000   0.500000 0
  0.312500   0.062500 0
  0.750000   0.500000 0
  0.062500   0.000000 0
  0.062500   0.062500 0
  0.562500   0.062500 0
  0.062500   0.750000 0
  0.312500   0.750000 0
  0.312500   0.625000 0
  0.312500   0.562500 0
  0.062500   0.562500 0
  0.187500   1.000000 0
  0.437500   0.562500 0
  0.875000   1.000000 0
  0.187500   0.562500 0
  0.500000   0.937500 0
  0.250000   0.937500 0
  0.312500   1.000000 0
  0.125000   0.750000 0
  0.125000   0.687500 0
  1.000000   0.000000 0
  0.000000   0.937500 0
  0.000000   0.875000 0
  0.875000   0.125000 0
  0.875000   0.187500 0
  0.062500   0.812500 0
  0.312500   0.812500 0
  0.000000   0.812500 0
  0.000000   0.625000 0
  0.000000   0.562500 0
  0.062500   1.000000 0
  0.062500   0.937500 0
  0.937500   0.187500 0
  0.937500   0.250000 0
  0.062500   0.687500 0
  0.062500   0.625000 0
  0.125000   1.000000 0
  1.000000   0.250000 0
  1.000000   0.312500 0
  0.062500   0.875000 0
  0.125000   0.812500 0
  0.375000   0.812500 0
  0.125000   0.875000 0
  0.375000   0.937500 0
  0.375000   0.875000 0
  0.187500   0.750000 0
  0.187500   0.812500 0
  0.437500   0.812500 0
  0.187500   0.875000 0
  0.437500   0.875000 0
  0.375000   0.562500 0
  0.812500   1.000000 0
  0.125000   0.562500 0
  0.437500   1.000000 0
  0.437500   0.937500 0
  0.187500   0.937500 0
  0.125000   0.937500 0
  0.500000   0.687500 0
  0.500000   0.750000 0
  0.500000   0.812500 0
  0.250000   0.812500 0
  0.250000   0.875000 0
  0.500000   0.875000 0
  0.437500   0.750000 0
  0.312500   0.875000 0
  0.312500   0.937500 0
  0.687500   0.250000 0
  0.687500   0.312500 0
  0.937500   0.312500 0
  0.875000   0.250000 0
  0.625000   0.000000 0
  0.875000   0.000000 0
  0.687500   0.375000 0
  0.937500   0.375000 0
  0.875000   0.312500 0
  0.625000   0.312500 0
  0.687500   0.000000 0
  0.937500   0.000000 0
  0.750000   0.312500 0
  0.750000   0.375000 0
  1.000000   0.375000 0
  0.812500   0.250000 0
  0.562500   0.437500 0
  0.562500   0.500000 0
  0.687500   0.062500 0
  0.750000   0.437500 0
  0.750000   0.000000 0
  0.750000   0.062500 0
  1.000000   0.062500 0
  0.812500   0.375000 0
  0.812500   0.437500 0
CELLS 256 1280
4 169 170 148 68
4 151 166 56 167
4 195 45 196 167
4 54 170 201 202
4 109 34 30 147
4 40 32 81 112
4 192 89 86 68
4 48 91 78 202
4 99 64 196 97
4 71 43 37 103
4 74 186 56 95
4 109 164 34 115
4 50 81 158 112
4 122 69 92 70
4 195 145 45 106
4 110 143 174 175
4 157 30 158 147
4 40 69 32 41
4 50 158 148 147
4 141 155 164 115
4 122 123 69 41
4 142 186 143 175
4 60 39 61 42
4 40 51 69 70
4 120 31 123 41
4 157 174 36 175
4 50 148 89 68
4 48 78 155 115
4 52 83 51 70
4 151 56 66 95
4 71 61 43 42
4 169 148 34 147
4 100 193 39 42
4 40 81 51 199
4 110 174 32 112
4 109 30 145 106
4 100 66 193 95
4 169 34 78 115
4 190 92 83 70
4 50 89 81 199
4 54 86 170 68
4 74 56 45 167
4 142 143 43 103
4 153 59 64 97
4 99 196 166 167
4 169 78 170 202
4 142 193 186 95
4 192 128 89 199
4 74 45 36 106
4 110 31 143 103
4 76 184 59 97
4 142 43 193 42
4 52 51 128 199
4 189 201 91 202
4 120 37 31 103
4 74 36 186 175
4 195 196 184 97
4 141 164 140 183
4 157 158 174 112
4 109 145 164 183
4 195 184 145 183
4 110 32 31 41
4 157 36 30 106
4 76 140 184 183
4 171 172 206 181
4 178 172 261 136
4 256 261 255 136
4 256 257 261 245
4 180 150 206 207
4 60 119 39 210
4 118 215 241 263
4 178 205 172 181
4 216 243 238 244
4 162 217 233 232
4 180 206 131 181
4 179 137 119 210
4 216 204 217 232
4 220 237 219 229
4 216 217 243 159
4 259 258 262 224
4 240 254 237 229
4 153 64 227 208
4 161 205 258 224
4 240 237 238 223
4 226 227 233 208
4 234 228 254 229
4 171 248 137 210
4 160 132 204 232
4 180 131 138 159
4 133 251 213 252
4 171 206 248 207
4 162 138 217 159
4 161 258 243 244
4 220 225 237 223
4 151 150 166 212
4 260 247 257 245
4 259 262 214 263
4 151 66 150 207
4 234 254 209 253
4 162 233 250 208
4 242 241 262 263
4 171 137 172 136
4 161 243 131 159
4 160 204 225 223
4 161 131 205 181
4 179 255 137 136
4 216 238 204 223
4 100 39 248 210
4 260 213 247 252
4 226 233 132 232
4 134 214 215 263
4 180 138 150 212
4 178 261 239 245
4 259 246 258 244
4 178 239 205 224
4 240 238 246 244
4 242 262 239 224
4 99 250 64 208
4 240 246 254 253
4 242 239 247 245
4 135 219 228 229
4 99 166 250 212
4 259 214 246 253
4 118 241 251 252
4 100 248 66 207
4 134 209 214 253
4 162 250 138 212
4 242 247 241 252
4 71 187 61 280
4 102 281 197 280
4 122 92 82 203
4 17 18 82 117
4 122 82 123 117
4 19 264 273 265
4 267 279 222 20
4 125 273 270 265
4 267 272 279 176
4 19 116 18 117
4 21 25 286 24
4 23 28 26 20
4 23 285 28 27
4 218 286 275 24
4 85 53 84 288
4 235 236 231 266
4 221 222 28 20
4 267 222 231 230
4 268 38 129 203
4 125 270 197 188
4 126 287 272 176
4 277 270 276 265
4 267 231 272 266
4 125 197 187 280
4 190 129 92 203
4 277 276 287 176
4 19 18 264 22
4 17 82 38 203
4 102 197 90 188
4 126 84 287 288
4 284 130 285 27
4 121 276 264 265
4 71 37 187 177
4 120 123 116 117
4 198 88 127 191
4 221 16 25 24
4 23 26 15 22
4 121 279 276 176
4 235 231 124 230
4 125 187 273 177
4 278 271 236 266
4 277 287 283 288
4 284 285 274 282
4 278 127 271 191
4 269 275 16 24
4 200 283 53 288
4 23 15 285 282
4 121 26 279 20
4 21 124 25 230
4 19 273 116 177
4 200 90 283 188
4 126 271 84 191
4 269 16 130 27
4 17 38 15 282
4 221 25 222 230
4 121 264 26 22
4 120 116 37 177
4 60 61 281 280
4 277 283 270 188
4 126 272 271 266
4 268 274 38 282
4 85 84 88 191
4 17 15 18 22
4 221 28 16 27
4 93 94 73 55
4 85 88 67 87
4 80 49 79 87
4 44 104 73 72
4 146 33 67 168
4 211 165 149 55
4 8 47 14 154
4 105 104 108 144
4 105 108 29 107
4 7 139 13 75
4 44 165 194 98
4 200 53 77 168
4 8 1 101 4
4 2 5 152 58
4 260 6 213 3
4 105 35 104 72
4 96 57 182 75
4 7 14 139 154
4 146 29 33 107
4 7 13 10 9
4 12 13 57 75
4 85 67 53 168
4 44 73 165 55
4 63 152 62 58
4 8 101 47 46
4 96 182 194 144
4 60 281 119 4
4 12 5 6 3
4 173 185 35 72
4 65 149 94 55
4 146 67 49 87
4 114 113 47 154
4 163 108 182 144
4 12 6 13 9
4 173 35 111 156
4 163 182 139 75
4 260 257 6 9
4 105 29 35 156
4 163 139 113 154
4 256 10 257 9
4 146 49 29 156
4 163 113 108 107
4 80 111 49 156
4 102 101 281 4
4 12 57 5 58
4 44 194 104 144
4 96 194 62 98
4 2 0 5 3
4 93 73 185 72
4 179 119 1 4
4 200 77 90 46
4 114 33 113 107
4 7 10 14 11
4 96 62 57 58
4 133 213 0 3
4 102 90 101 46
4 256 255 10 11
4 63 62 249 98
4 114 47 77 46
4 179 1 255 11
4 211 249 165 98
4 114 77 33 168
4 198 79 88 87
4 8 14 1 11
CELL_TYPES 256
8
8
8
8
8
8
8
8
8
8
8
8
8
8
8
8
8
8
8
8
8
8
8
8
8
8
8
8
8
8
8
8
8
8
8
8
8
8
8
8
8
8
8
8
8
8
8
8
8
8
8
8
8
8
8
8
8
8
8
8
8
8
8
8
8
8
8
8
8
8
8
8
8
8
8
8
8
8
8
8
8
8
8
8
8
8
8
8
8
8
8
8
8
8
8
8
8
8
8
8
8
8
8
8
8
8
8
8
8
8
8
8
8
8
8
8
8
8
8
8
8
8
8
8
8
8
8
8
8
8
8
8
8
8
8
8
8
8
8
8
8
8
8
8
8
8
8
8
8
8
8
8
8
8
8
8
8
8
8
8
8
8
8
8
8
8
8
8
8
8
8
8
8
8
8
8
8
8
8
8
8
8
8
8
8
8
8
8
8
8
8
8
8
8
8
8
8
8
8
8
8
8
8
8
8
8
8
8
8
8
8
8
8
8
8
8
8
8
8
8
8
8
8
8
8
8
8
8
8
8
8
8
8
8
8
8
8
8
8
8
8
8
8
8
8
8
8
8
8
8
8
8
8
8
8
8
CELL_DATA 256
VECTORS vector_value float
0.295197 -0.387494 0
0.0937702 -0.651532 0
0.0723307 -0.90641 0
0.0697019 -0.633398 0
0.38764 -0.444813 0
-0.11598 -2.04583 0
0.0875412 -0.431362 0
0.105664 -1.15377 0
-0.693045 -1.77794 0
-0.252451 -1.83062 0
0.284358 -0.324874 0
0.295355 -1.07814 0
0.396282 -1.3908 0
-0.520053 -0.665488 0
0.265254 -0.683181 0
-0.204313 -1.07508 0
0.481211 -0.579152 0
-0.615914 -1.44102 0
0.484666 -0.547147 0
0.0913197 -1.55729 0
-0.747673 -1.05457 0
0.0128135 -0.62071 0
0.0114319 -1.54237 0
-0.841337 -1.75616 0
-0.438249 -1.11465 0
0.169053 -0.620381 0
0.3399 -0.47272 0
0.0927049 -1.36961 0
-0.145134 -1.48215 0
0.207243 -0.284309 0
-0.305215 -1.80653 0
0.4405 -0.460923 0
0.196985 -0.570231 0
-0.2631 -2.93841 0
-0.212819 -1.39025 0
0.369155 -0.575937 0
0.189321 -0.250308 0
0.267475 -0.80999 0
-0.0732726 -0.483371 0
0.306749 -1.50662 0
0.0948532 -0.417406 0
0.264558 -0.429577 0
-0.31962 -1.09356 0
-0.183405 -1.08303 0
-0.478449 -1.46267 0
0.263074 -0.720104 0
0.171026 -0.308964 0
0.0385545 -1.73428 0
0.280633 -0.39847 0
-0.38326 -1.11877 0
-0.200663 -1.43722 0
-0.053012 -0.851452 0
-0.147526 -3.5584 0
0.0250537 -1.02361 0
-0.262894 -1.42702 0
0.209508 -0.376033 0
-0.291728 -1.91521 0
0.0836081 -1.77853 0
0.202939 -1.10592 0
0.244205 -1.2357 0
0.059672 -1.49397 0
-0.451006 -1.22424 0
0.33172 -0.457326 0
-0.0694926 -1.79845 0
-0.250302 -0.880503 0
-0.478729 -1.08753 0
-0.321138 -1.19115 0
-0.0726443 -1.60295 0
-0.196052 -0.590055 0
0.348759 -1.35538 0
0.68492 -0.903907 0
-0.443063 -0.895321 0
0.44426 -1.32381 0
0.118078 -0.847749 0
-0.405085 -0.892307 0
0.224931 -1.12126 0
0.329999 -0.844572 0
-0.120912 -1.15111 0
0.321 -1.45772 0
-0.0190119 -0.342847 0
-0.304072 -1.53389 0
-0.15268 -0.804331 0
-0.0326998 -0.3745 0
0.221403 -1.33618 0
-0.045164 -0.544684 0
-0.184332 -1.20744 0
0.302716 -0.808002 0
0.155603 -0.769713 0
-0.325065 -1.1478 0
-0.142323 -1.45212 0
0.0906217 -0.667974 0
-0.0663187 -1.80878 0
0.202176 -0.703638 0
0.0344541 -1.30191 0
-0.223644 -0.957515 0
0.241659 -1.94428 0
-0.0123302 -0.307137 0
0.0196209 -0.332135 0
-0.542059 -1.26488 0
-0.157255 -0.859852 0
0.054002 -0.602356 0
-0.0615696 -0.989235 0
0.103701 -1.04149 0
0.136941 -1.06936 0
-0.227764 -0.728059 0
0.0712017 -1.14041 0
0.389617 -1.06683 0
0.286184 -0.569485 0
0.203427 -1.94279 0
0.0397542 -0.507309 0
0.192151 -0.510615 0
-0.461374 -1.26975 0
-0.282705 -1.02711 0
0.0362019 -0.38166 0
-0.235015 -0.786055 0
0.210347 -1.14227 0
-0.0467252 -0.537538 0
-0.456837 -1.12079 0
-0.206052 -1.06419 0
0.0114756 -1.25891 0
-0.000415005 -0.960231 0
-0.600297 -2.17091 0
-0.0808187 -0.406853 0
0.554275 -1.44879 0
0.1723 -0.412116 0
-0.39068 -0.652503 0
-0.357261 -2.13961 0
0.216933 -1.53653 0
-0.19738 -1.87269 0
0.0992499 -1.33546 0
-0.283868 -0.603116 0
-0.328237 -0.71811 0
-0.427781 -0.76036 0
0.0587376 -0.755874 0
-0.139344 -0.620052 0
0.233073 -0.660552 0
-0.0839455 -0.573831 0
-0.117649 -0.716792 0
-0.00215062 -0.354834 0
0.0327361 -1.04265 0
0.110745 -1.1628 0
0.0116668 -0.384521 0
0.218987 -0.931741 0
-0.0775267 -0.972594 0
-0.106959 -0.819572 0
-0.283996 -0.811423 0
-0.0391925 -0.61859 0
0.366261 -0.608828 0
-0.0306759 -0.682983 0
0.111462 -1.20513 0
-0.0960252 -0.682117 0
0.182056 -1.03707 0
-0.0659286 -0.595371 0
-0.0656749 -1.26503 0
-0.193303 -0.858017 0
-0.19936 -0.729275 0
0.326738 -0.850121 0
0.122509 -0.867865 0
0.0661524 -1.14899 0
-0.137785 -1.55545 0
-0.0120163 -1.57278 0
-0.286645 -1.14817 0
0.126027 -0.682448 0
-0.0330456 -0.781592 0
-0.0348966 -1.41243 0
-0.17021 -1.14227 0
-0.174845 -0.70352 0
0.145451 -0.647884 0
0.0357861 -0.976453 0
0.163071 -1.00992 0
-0.012575 -0.876059 0
0.0771124 -0.865453 0
0.00128152 -0.714963 0
0.197168 -0.902656 0
-0.011049 -1.17001 0
-0.0980731 -1.05857 0
-0.0598185 -0.423545 0
0.117174 -0.604553 0
0.275871 -0.795241 0
0.167173 -0.676919 0
0.034543 -1.15525 0
-0.117251 -0.613487 0
-0.177618 -0.859635 0
-0.179722 -1.58899 0
0.0332555 -1.42455 0
-0.0828091 -2.22512 0
0.386497 -1.08102 0
0.0633465 -0.694219 0
-0.061472 -0.742282 0
0.268309 -0.654823 0
-0.27419 -0.843806 0
0.00194374 -0.984124 0
-0.0772693 -0.730522 0
0.142573 -0.595444 0
0.0406924 -0.335634 0
-0.0701114 -1.14032 0
0.0195362 -0.949657 0
-0.306056 -0.870056 0
0.13193 -0.639482 0
-0.178743 -1.12613 0
-0.320348 -1.00593 0
-0.402129 -0.717598 0
-0.0174622 -1.15694 0
0.109105 -0.874906 0
0.0900748 -1.24078 0
-0.0177368 -0.922657 0
-0.0152669 -0.920464 0
-0.130325 -1.28931 0
-0.353077 -0.825243 0
-0.00504584 -0.541523 0
-0.264436 -1.04635 0
-0.496306 -1.41564 0
-0.581657 -0.98637 0
0.177659 -1.04308 0
-0.0794988 -0.813152 0
-0.0230046 -1.04881 0
0.0312361 -0.846841 0
-0.0646983 -0.774779 0
0.16283 -2.13434 0
-0.164754 -0.693472 0
-0.0654005 -0.346302 0
-0.105472 -0.848526 0
0.0500885 -0.621804 0
-0.0518218 -0.722749 0
-0.143297 -0.688515 0
-0.365582 -1.01794 0
-0.018111 -0.26228 0
-0.163963 -0.532333 0
0.0778669 -1.35227 0
-0.209735 -1.16483 0
-0.0642985 -0.517672 0
-0.0754527 -1.92993 0
-0.0641439 -0.79466 0
-0.23182 -0.913879 0
0.0214068 -0.257386 0
0.0200777 -1.36508 0
-0.305445 -0.971863 0
0.0775916 -1.15101 0
-0.120414 -1.11606 0
-0.233856 -0.695 0
-0.107723 -0.506498 0
0.134782 -1.95346 0
0.0263579 -0.807357 0
-0.244356 -1.10651 0
-0.0579963 -1.46633 0
-0.309946 -1.05268 0
-0.470804 -0.906651 0
-0.049071 -0.989367 0
-0.174782 -2.11199 0
-0.163984 -1.19722 0
-0.118395 -0.951287 0
0.111349 -1.89434 0
-0.327989 -1.11059 0
-0.0361988 -1.09935 0
0.0698298 -0.467766 0
0.173673 -1.32444 0
