# vtk DataFile Version 2.0
Unstructured Grid by M++
ASCII
DATASET UNSTRUCTURED_GRID
POINTS 81 float
  1.000000   0.625000 0
  0.750000   0.375000 0
  1.000000   0.000000 0
  0.875000   0.875000 0
  0.750000   0.125000 0
  1.000000   1.000000 0
  0.875000   0.250000 0
  0.625000   0.875000 0
  1.000000   0.750000 0
  0.875000   0.000000 0
  1.000000   0.250000 0
  0.625000   0.375000 0
  0.875000   0.500000 0
  0.625000   0.625000 0
  1.000000   0.500000 0
  0.750000   0.500000 0
  0.750000   1.000000 0
  1.000000   0.125000 0
  0.625000   0.250000 0
  0.750000   0.750000 0
  0.625000   0.000000 0
  0.125000   0.375000 0
  0.000000   0.500000 0
  0.125000   0.625000 0
  0.625000   1.000000 0
  1.000000   0.875000 0
  0.875000   0.125000 0
  0.500000   0.250000 0
  0.625000   0.500000 0
  0.250000   0.625000 0
  0.000000   0.625000 0
  0.375000   0.500000 0
  0.375000   0.000000 0
  0.000000   0.125000 0
  0.125000   0.875000 0
  0.875000   1.000000 0
  0.750000   0.250000 0
  0.375000   0.375000 0
  0.250000   0.375000 0
  0.625000   0.750000 0
  0.125000   0.125000 0
  0.500000   0.000000 0
  0.250000   0.875000 0
  0.125000   0.500000 0
  0.500000   0.375000 0
  0.125000   0.000000 0
  0.250000   0.750000 0
  0.250000   0.500000 0
  0.000000   0.875000 0
  0.875000   0.625000 0
  0.500000   0.750000 0
  0.750000   0.625000 0
  0.250000   0.000000 0
  0.375000   0.750000 0
  0.750000   0.875000 0
  0.625000   0.125000 0
  0.250000   0.250000 0
  0.375000   1.000000 0
  0.375000   0.250000 0
  0.000000   0.375000 0
  0.500000   1.000000 0
  0.875000   0.750000 0
  0.750000   0.000000 0
  0.375000   0.125000 0
  0.500000   0.875000 0
  0.000000   0.000000 0
  0.125000   0.750000 0
  0.500000   0.625000 0
  0.125000   0.250000 0
  0.500000   0.125000 0
  0.250000   1.000000 0
  0.250000   0.125000 0
  0.000000   1.000000 0
  0.375000   0.875000 0
  0.000000   0.750000 0
  0.375000   0.625000 0
  0.000000   0.250000 0
  0.125000   1.000000 0
  1.000000   0.375000 0
  0.500000   0.500000 0
  0.875000   0.375000 0
CELLS 64 320
4 56 71 58 63
4 27 58 69 63
4 41 69 32 63
4 76 33 68 40
4 27 44 58 37
4 79 31 44 37
4 56 38 68 21
4 56 58 38 37
4 52 32 71 63
4 47 38 31 37
4 76 68 59 21
4 22 59 43 21
4 65 45 33 40
4 47 43 38 21
4 52 71 45 40
4 56 68 71 40
4 74 30 66 23
4 46 66 29 23
4 22 43 30 23
4 72 48 77 34
4 46 53 42 73
4 50 64 53 73
4 70 42 57 73
4 74 66 48 34
4 46 42 66 34
4 47 29 43 23
4 70 77 42 34
4 60 57 64 73
4 79 67 31 75
4 47 31 29 75
4 50 53 67 75
4 46 29 53 75
4 10 78 6 80
4 36 6 1 80
4 15 1 12 80
4 36 4 6 26
4 14 12 78 80
4 2 17 9 26
4 36 18 4 55
4 15 28 1 11
4 62 4 20 55
4 10 6 17 26
4 27 18 44 11
4 62 9 4 26
4 27 69 18 55
4 36 1 18 11
4 41 20 69 55
4 79 44 28 11
4 16 24 54 7
4 19 54 39 7
4 50 39 64 7
4 8 25 61 3
4 60 64 24 7
4 79 28 67 13
4 19 51 61 49
4 8 61 0 49
4 15 51 28 13
4 19 39 51 13
4 50 67 39 13
4 19 61 54 3
4 14 0 12 49
4 5 35 25 3
4 15 12 51 49
4 16 54 35 3
CELL_TYPES 64
8
8
8
8
8
8
8
8
8
8
8
8
8
8
8
8
8
8
8
8
8
8
8
8
8
8
8
8
8
8
8
8
8
8
8
8
8
8
8
8
8
8
8
8
8
8
8
8
8
8
8
8
8
8
8
8
8
8
8
8
8
8
8
8
CELL_DATA 64
VECTORS vector_value float
0.0617478 -0.12518 0
0.0878659 -0.310696 0
0.0276052 -0.252607 0
-0.0897525 -0.622626 0
0.0996975 -0.250125 0
0.786047 -0.580936 0
-0.0266039 -0.593568 0
0.129749 -0.194329 0
0.0337414 -0.174964 0
0.264469 -0.164119 0
-0.0631337 -0.453043 0
-0.0360424 -0.297708 0
-0.0655613 -0.801146 0
0.112796 -0.985536 0
-0.0164799 -0.111995 0
-0.0674822 -0.367238 0
0.0283881 -0.402133 0
0.124359 -1.38714 0
0.0431998 -0.396161 0
0.216504 -0.914017 0
0.127699 -1.57375 0
-0.243016 -0.987033 0
-0.201908 -1.44954 0
0.0548978 -0.512707 0
0.125924 -1.34845 0
0.160857 -1.11345 0
0.226738 -1.07995 0
-0.266469 -0.417827 0
1.17751 -0.989757 0
0.63832 -0.76134 0
0.620952 -1.68889 0
0.451182 -1.31555 0
-0.0113679 -0.559933 0
0.0157011 -0.512009 0
-0.341868 -0.536267 0
0.620439 -1.29258 0
-0.11578 -0.669379 0
0.0172192 -0.61319 0
1.22999 -3.3598 0
0.429201 -2.13988 0
0.311844 -2.39967 0
0.0140489 -0.562413 0
0.460215 -2.41845 0
0.468442 -2.48205 0
0.412284 -1.35947 0
0.32143 -3.01854 0
0.0741778 -1.16438 0
1.13579 -2.62617 0
-0.696596 -1.42717 0
0.18397 -1.15428 0
-0.453748 -1.21584 0
0.0904468 -0.93222 0
-0.315531 -1.28663 0
1.248 -2.26 0
0.337079 -0.762843 0
0.0925021 -1.10793 0
0.0369271 -0.935281 0
0.0302844 -0.284985 0
0.0282746 -1.05054 0
0.102896 -0.275712 0
-0.174791 -1.12682 0
-0.102814 -0.77168 0
-0.315729 -0.417191 0
-0.454668 -0.653181 0
