# vtk DataFile Version 2.0
Unstructured Grid by M++
ASCII
DATASET UNSTRUCTURED_GRID
POINTS 81 float
  1.000000   0.625000 0
  0.750000   0.375000 0
  1.000000   0.000000 0
  0.875000   0.875000 0
  0.750000   0.125000 0
  1.000000   1.000000 0
  0.875000   0.250000 0
  0.625000   0.875000 0
  1.000000   0.750000 0
  0.875000   0.000000 0
  1.000000   0.250000 0
  0.625000   0.375000 0
  0.875000   0.500000 0
  0.625000   0.625000 0
  1.000000   0.500000 0
  0.750000   0.500000 0
  0.750000   1.000000 0
  1.000000   0.125000 0
  0.625000   0.250000 0
  0.750000   0.750000 0
  0.625000   0.000000 0
  0.125000   0.375000 0
  0.000000   0.500000 0
  0.125000   0.625000 0
  0.625000   1.000000 0
  1.000000   0.875000 0
  0.875000   0.125000 0
  0.500000   0.250000 0
  0.625000   0.500000 0
  0.250000   0.625000 0
  0.000000   0.625000 0
  0.375000   0.500000 0
  0.375000   0.000000 0
  0.000000   0.125000 0
  0.125000   0.875000 0
  0.875000   1.000000 0
  0.750000   0.250000 0
  0.375000   0.375000 0
  0.250000   0.375000 0
  0.625000   0.750000 0
  0.125000   0.125000 0
  0.500000   0.000000 0
  0.250000   0.875000 0
  0.125000   0.500000 0
  0.500000   0.375000 0
  0.125000   0.000000 0
  0.250000   0.750000 0
  0.250000   0.500000 0
  0.000000   0.875000 0
  0.875000   0.625000 0
  0.500000   0.750000 0
  0.750000   0.625000 0
  0.250000   0.000000 0
  0.375000   0.750000 0
  0.750000   0.875000 0
  0.625000   0.125000 0
  0.250000   0.250000 0
  0.375000   1.000000 0
  0.375000   0.250000 0
  0.000000   0.375000 0
  0.500000   1.000000 0
  0.875000   0.750000 0
  0.750000   0.000000 0
  0.375000   0.125000 0
  0.500000   0.875000 0
  0.000000   0.000000 0
  0.125000   0.750000 0
  0.500000   0.625000 0
  0.125000   0.250000 0
  0.500000   0.125000 0
  0.250000   1.000000 0
  0.250000   0.125000 0
  0.000000   1.000000 0
  0.375000   0.875000 0
  0.000000   0.750000 0
  0.375000   0.625000 0
  0.000000   0.250000 0
  0.125000   1.000000 0
  1.000000   0.375000 0
  0.500000   0.500000 0
  0.875000   0.375000 0
CELLS 64 320
4 56 71 58 63
4 27 58 69 63
4 41 69 32 63
4 76 33 68 40
4 27 44 58 37
4 79 31 44 37
4 56 38 68 21
4 56 58 38 37
4 52 32 71 63
4 47 38 31 37
4 76 68 59 21
4 22 59 43 21
4 65 45 33 40
4 47 43 38 21
4 52 71 45 40
4 56 68 71 40
4 74 30 66 23
4 46 66 29 23
4 22 43 30 23
4 72 48 77 34
4 46 53 42 73
4 50 64 53 73
4 70 42 57 73
4 74 66 48 34
4 46 42 66 34
4 47 29 43 23
4 70 77 42 34
4 60 57 64 73
4 79 67 31 75
4 47 31 29 75
4 50 53 67 75
4 46 29 53 75
4 10 78 6 80
4 36 6 1 80
4 15 1 12 80
4 36 4 6 26
4 14 12 78 80
4 2 17 9 26
4 36 18 4 55
4 15 28 1 11
4 62 4 20 55
4 10 6 17 26
4 27 18 44 11
4 62 9 4 26
4 27 69 18 55
4 36 1 18 11
4 41 20 69 55
4 79 44 28 11
4 16 24 54 7
4 19 54 39 7
4 50 39 64 7
4 8 25 61 3
4 60 64 24 7
4 79 28 67 13
4 19 51 61 49
4 8 61 0 49
4 15 51 28 13
4 19 39 51 13
4 50 67 39 13
4 19 61 54 3
4 14 0 12 49
4 5 35 25 3
4 15 12 51 49
4 16 54 35 3
CELL_TYPES 64
8
8
8
8
8
8
8
8
8
8
8
8
8
8
8
8
8
8
8
8
8
8
8
8
8
8
8
8
8
8
8
8
8
8
8
8
8
8
8
8
8
8
8
8
8
8
8
8
8
8
8
8
8
8
8
8
8
8
8
8
8
8
8
8
CELL_DATA 64
VECTORS vector_value float
0.15554 -2.78789 0
-0.104057 -0.335948 0
-0.0251865 -0.960314 0
-0.408561 -1.1086 0
-0.0943754 -0.442038 0
-0.0703938 -0.481317 0
-0.165542 -3.7303 0
-0.0345564 -2.20466 0
0.337572 -2.98672 0
-0.607537 -2.8033 0
-0.100264 -0.409755 0
-0.0878102 -0.179518 0
-0.186251 -1.628 0
-0.628049 -3.32472 0
-0.00370614 -1.67697 0
-0.116465 -2.66791 0
0.0448194 -0.119125 0
0.27392 -2.38854 0
-0.0150023 -0.0975266 0
0.0661231 -0.936774 0
-0.434498 -0.792594 0
-0.767533 -0.837081 0
-0.405755 -0.555349 0
0.341905 -0.513301 0
0.259612 -2.34561 0
-0.298415 -2.40894 0
-0.288457 -1.61426 0
0.038294 -0.500886 0
-0.923977 -0.824046 0
-0.793292 -2.98529 0
-1.32882 -0.942498 0
-0.459543 -2.05 0
0.0106624 -0.122348 0
-0.0484206 -0.226738 0
-0.215143 -0.358366 0
-0.0759549 -0.10225 0
-0.0176986 -0.103473 0
-0.00375653 -0.0729601 0
-0.0941101 -0.350814 0
-0.206596 -0.391017 0
-0.0494946 -0.354522 0
-0.0230604 -0.116941 0
-0.0898461 -0.591029 0
-0.019725 -0.0617979 0
-0.143077 -0.529643 0
-0.0721954 -0.273133 0
-0.140965 -0.258712 0
-0.0889472 -0.358289 0
-0.540619 -0.71986 0
-0.325861 -0.804697 0
-0.265818 -1.24327 0
-0.0731513 -0.747842 0
-0.498148 -1.92066 0
-0.664768 -0.781778 0
-0.301166 -0.324336 0
-0.0792702 -0.658544 0
-0.222687 -0.24707 0
-0.684667 -0.536455 0
-1.01329 -0.980499 0
-0.323328 -0.715604 0
-0.206704 -0.4422 0
-0.0711678 -1.08834 0
-0.188271 -0.213147 0
-0.227419 -0.663869 0
