# vtk DataFile Version 2.0
Unstructured Grid by M++
ASCII
DATASET UNSTRUCTURED_GRID
POINTS 81 float
  1.000000   0.625000 0
  0.750000   0.375000 0
  1.000000   0.000000 0
  0.875000   0.875000 0
  0.750000   0.125000 0
  1.000000   1.000000 0
  0.875000   0.250000 0
  0.625000   0.875000 0
  1.000000   0.750000 0
  0.875000   0.000000 0
  1.000000   0.250000 0
  0.625000   0.375000 0
  0.875000   0.500000 0
  0.625000   0.625000 0
  1.000000   0.500000 0
  0.750000   0.500000 0
  0.750000   1.000000 0
  1.000000   0.125000 0
  0.625000   0.250000 0
  0.750000   0.750000 0
  0.625000   0.000000 0
  0.125000   0.375000 0
  0.000000   0.500000 0
  0.125000   0.625000 0
  0.625000   1.000000 0
  1.000000   0.875000 0
  0.875000   0.125000 0
  0.500000   0.250000 0
  0.625000   0.500000 0
  0.250000   0.625000 0
  0.000000   0.625000 0
  0.375000   0.500000 0
  0.375000   0.000000 0
  0.000000   0.125000 0
  0.125000   0.875000 0
  0.875000   1.000000 0
  0.750000   0.250000 0
  0.375000   0.375000 0
  0.250000   0.375000 0
  0.625000   0.750000 0
  0.125000   0.125000 0
  0.500000   0.000000 0
  0.250000   0.875000 0
  0.125000   0.500000 0
  0.500000   0.375000 0
  0.125000   0.000000 0
  0.250000   0.750000 0
  0.250000   0.500000 0
  0.000000   0.875000 0
  0.875000   0.625000 0
  0.500000   0.750000 0
  0.750000   0.625000 0
  0.250000   0.000000 0
  0.375000   0.750000 0
  0.750000   0.875000 0
  0.625000   0.125000 0
  0.250000   0.250000 0
  0.375000   1.000000 0
  0.375000   0.250000 0
  0.000000   0.375000 0
  0.500000   1.000000 0
  0.875000   0.750000 0
  0.750000   0.000000 0
  0.375000   0.125000 0
  0.500000   0.875000 0
  0.000000   0.000000 0
  0.125000   0.750000 0
  0.500000   0.625000 0
  0.125000   0.250000 0
  0.500000   0.125000 0
  0.250000   1.000000 0
  0.250000   0.125000 0
  0.000000   1.000000 0
  0.375000   0.875000 0
  0.000000   0.750000 0
  0.375000   0.625000 0
  0.000000   0.250000 0
  0.125000   1.000000 0
  1.000000   0.375000 0
  0.500000   0.500000 0
  0.875000   0.375000 0
CELLS 64 320
4 56 71 58 63
4 27 58 69 63
4 41 69 32 63
4 76 33 68 40
4 27 44 58 37
4 79 31 44 37
4 56 38 68 21
4 56 58 38 37
4 52 32 71 63
4 47 38 31 37
4 76 68 59 21
4 22 59 43 21
4 65 45 33 40
4 47 43 38 21
4 52 71 45 40
4 56 68 71 40
4 74 30 66 23
4 46 66 29 23
4 22 43 30 23
4 72 48 77 34
4 46 53 42 73
4 50 64 53 73
4 70 42 57 73
4 74 66 48 34
4 46 42 66 34
4 47 29 43 23
4 70 77 42 34
4 60 57 64 73
4 79 67 31 75
4 47 31 29 75
4 50 53 67 75
4 46 29 53 75
4 10 78 6 80
4 36 6 1 80
4 15 1 12 80
4 36 4 6 26
4 14 12 78 80
4 2 17 9 26
4 36 18 4 55
4 15 28 1 11
4 62 4 20 55
4 10 6 17 26
4 27 18 44 11
4 62 9 4 26
4 27 69 18 55
4 36 1 18 11
4 41 20 69 55
4 79 44 28 11
4 16 24 54 7
4 19 54 39 7
4 50 39 64 7
4 8 25 61 3
4 60 64 24 7
4 79 28 67 13
4 19 51 61 49
4 8 61 0 49
4 15 51 28 13
4 19 39 51 13
4 50 67 39 13
4 19 61 54 3
4 14 0 12 49
4 5 35 25 3
4 15 12 51 49
4 16 54 35 3
CELL_TYPES 64
8
8
8
8
8
8
8
8
8
8
8
8
8
8
8
8
8
8
8
8
8
8
8
8
8
8
8
8
8
8
8
8
8
8
8
8
8
8
8
8
8
8
8
8
8
8
8
8
8
8
8
8
8
8
8
8
8
8
8
8
8
8
8
8
CELL_DATA 64
VECTORS vector_value float
-0.0127218 -0.180335 0
-0.102192 -0.149706 0
-0.439343 -0.918733 0
0.0638933 -0.314575 0
0.0307344 -0.160416 0
0.0716327 -0.341086 0
-0.0128913 -0.0858978 0
-0.00632621 -0.0580302 0
0.0318273 -0.263247 0
-0.0079505 -0.0464868 0
-0.0177573 -0.354749 0
-0.029645 -0.303038 0
0.020558 -0.196661 0
-0.032818 -0.134578 0
0.0682389 -0.128822 0
0.0801619 -0.0815637 0
-0.00735409 -0.221351 0
0.00539458 -0.125395 0
-0.0207739 -0.22647 0
0.386319 -0.496615 0
0.681621 -0.378284 0
1.73254 -1.97297 0
1.37462 -1.14161 0
0.00985574 -0.191194 0
0.17566 -0.371423 0
-0.0651275 -0.168422 0
1.03168 -0.939273 0
0.447634 -1.43991 0
0.0997768 -0.54322 0
-0.0426066 -0.0847906 0
0.5379 -1.04846 0
0.0297306 -0.110927 0
-0.154839 -0.520121 0
-0.667277 -0.938072 0
-0.477015 -1.21076 0
-0.279421 -0.529724 0
-0.17541 -1.13475 0
0.0108144 -0.29513 0
-0.917878 -3.40678 0
0.198239 -3.12397 0
-0.483675 -2.65345 0
-0.050213 -0.288966 0
0.0205669 -1.66369 0
-0.0714026 -0.203598 0
-0.986035 -3.04835 0
-0.741484 -4.21902 0
-0.744588 -3.34036 0
0.304388 -1.70533 0
-0.135217 -1.27729 0
-0.116356 -1.1603 0
0.789196 -2.32687 0
0.0223793 -0.451208 0
0.0528733 -0.908441 0
0.649548 -2.76271 0
0.53213 -1.10326 0
0.118961 -0.643854 0
0.227407 -1.27287 0
1.2138 -1.74395 0
1.11231 -3.00281 0
-0.02945 -1.14776 0
0.138476 -0.906519 0
-0.260801 -0.573356 0
0.280833 -2.035 0
-0.403369 -1.2235 0
