# vtk DataFile Version 2.0
Unstructured Grid by M++
ASCII
DATASET UNSTRUCTURED_GRID
POINTS 81 float
  1.000000   0.625000 0
  0.750000   0.375000 0
  1.000000   0.000000 0
  0.875000   0.875000 0
  0.750000   0.125000 0
  1.000000   1.000000 0
  0.875000   0.250000 0
  0.625000   0.875000 0
  1.000000   0.750000 0
  0.875000   0.000000 0
  1.000000   0.250000 0
  0.625000   0.375000 0
  0.875000   0.500000 0
  0.625000   0.625000 0
  1.000000   0.500000 0
  0.750000   0.500000 0
  0.750000   1.000000 0
  1.000000   0.125000 0
  0.625000   0.250000 0
  0.750000   0.750000 0
  0.625000   0.000000 0
  0.125000   0.375000 0
  0.000000   0.500000 0
  0.125000   0.625000 0
  0.625000   1.000000 0
  1.000000   0.875000 0
  0.875000   0.125000 0
  0.500000   0.250000 0
  0.625000   0.500000 0
  0.250000   0.625000 0
  0.000000   0.625000 0
  0.375000   0.500000 0
  0.375000   0.000000 0
  0.000000   0.125000 0
  0.125000   0.875000 0
  0.875000   1.000000 0
  0.750000   0.250000 0
  0.375000   0.375000 0
  0.250000   0.375000 0
  0.625000   0.750000 0
  0.125000   0.125000 0
  0.500000   0.000000 0
  0.250000   0.875000 0
  0.125000   0.500000 0
  0.500000   0.375000 0
  0.125000   0.000000 0
  0.250000   0.750000 0
  0.250000   0.500000 0
  0.000000   0.875000 0
  0.875000   0.625000 0
  0.500000   0.750000 0
  0.750000   0.625000 0
  0.250000   0.000000 0
  0.375000   0.750000 0
  0.750000   0.875000 0
  0.625000   0.125000 0
  0.250000   0.250000 0
  0.375000   1.000000 0
  0.375000   0.250000 0
  0.000000   0.375000 0
  0.500000   1.000000 0
  0.875000   0.750000 0
  0.750000   0.000000 0
  0.375000   0.125000 0
  0.500000   0.875000 0
  0.000000   0.000000 0
  0.125000   0.750000 0
  0.500000   0.625000 0
  0.125000   0.250000 0
  0.500000   0.125000 0
  0.250000   1.000000 0
  0.250000   0.125000 0
  0.000000   1.000000 0
  0.375000   0.875000 0
  0.000000   0.750000 0
  0.375000   0.625000 0
  0.000000   0.250000 0
  0.125000   1.000000 0
  1.000000   0.375000 0
  0.500000   0.500000 0
  0.875000   0.375000 0
CELLS 64 320
4 56 71 58 63
4 27 58 69 63
4 41 69 32 63
4 76 33 68 40
4 27 44 58 37
4 79 31 44 37
4 56 38 68 21
4 56 58 38 37
4 52 32 71 63
4 47 38 31 37
4 76 68 59 21
4 22 59 43 21
4 65 45 33 40
4 47 43 38 21
4 52 71 45 40
4 56 68 71 40
4 74 30 66 23
4 46 66 29 23
4 22 43 30 23
4 72 48 77 34
4 46 53 42 73
4 50 64 53 73
4 70 42 57 73
4 74 66 48 34
4 46 42 66 34
4 47 29 43 23
4 70 77 42 34
4 60 57 64 73
4 79 67 31 75
4 47 31 29 75
4 50 53 67 75
4 46 29 53 75
4 10 78 6 80
4 36 6 1 80
4 15 1 12 80
4 36 4 6 26
4 14 12 78 80
4 2 17 9 26
4 36 18 4 55
4 15 28 1 11
4 62 4 20 55
4 10 6 17 26
4 27 18 44 11
4 62 9 4 26
4 27 69 18 55
4 36 1 18 11
4 41 20 69 55
4 79 44 28 11
4 16 24 54 7
4 19 54 39 7
4 50 39 64 7
4 8 25 61 3
4 60 64 24 7
4 79 28 67 13
4 19 51 61 49
4 8 61 0 49
4 15 51 28 13
4 19 39 51 13
4 50 67 39 13
4 19 61 54 3
4 14 0 12 49
4 5 35 25 3
4 15 12 51 49
4 16 54 35 3
CELL_TYPES 64
8
8
8
8
8
8
8
8
8
8
8
8
8
8
8
8
8
8
8
8
8
8
8
8
8
8
8
8
8
8
8
8
8
8
8
8
8
8
8
8
8
8
8
8
8
8
8
8
8
8
8
8
8
8
8
8
8
8
8
8
8
8
8
8
CELL_DATA 64
VECTORS vector_value float
-0.100769 -0.598976 0
-0.122036 -1.14372 0
-0.100691 -0.472367 0
-0.611632 -1.53021 0
0.397677 -0.623519 0
-0.207327 -0.479234 0
-1.16978 -3.03876 0
-0.128149 -2.12896 0
-0.423663 -0.975743 0
-0.230385 -2.64217 0
-0.191195 -0.239509 0
-0.0492783 -0.0749697 0
-0.751284 -3.01052 0
-0.296312 -2.84798 0
-0.839291 -1.39488 0
-0.27783 -2.62804 0
0.111124 -0.221941 0
0.189248 -1.52156 0
0.0493963 -0.0693325 0
-0.0973549 -1.18343 0
-0.357128 -1.5709 0
-0.566195 -1.83265 0
0.435316 -0.949481 0
0.409751 -1.03492 0
0.156902 -0.306921 0
-0.307717 -2.13122 0
0.19694 -0.478263 0
-0.086267 -1.74013 0
-0.237381 -0.2388 0
-1.20827 -3.22577 0
-1.21188 -1.47818 0
-0.450828 -2.02201 0
-0.0385175 -1.74031 0
0.00382525 -0.0438568 0
0.00797172 -0.0440274 0
-0.179517 -0.312258 0
0.0372349 -1.72869 0
-0.050986 -1.16394 0
0.10145 -0.0766175 0
-0.0198659 -0.0483551 0
0.0259807 -0.100127 0
-0.209281 -1.49879 0
0.0573775 -0.172601 0
-0.0779927 -0.702214 0
0.110975 -0.211385 0
0.00220655 -0.01248 0
0.0174099 -0.180217 0
-0.0884958 -0.134581 0
-0.22943 -0.216452 0
-0.158549 -0.080342 0
-0.337307 -1.02894 0
0.130001 -1.21443 0
-0.573738 -1.12003 0
-0.242781 -0.41851 0
-0.00221658 -0.353027 0
0.0887253 -1.54131 0
-0.114051 -0.0717659 0
-0.187199 -0.17538 0
-0.384152 -0.686588 0
0.0361986 -0.930904 0
0.0616008 -1.51318 0
0.0546931 -0.981953 0
0.0393249 -0.331427 0
0.17445 -1.33026 0
