# vtk DataFile Version 2.0
Unstructured Grid by M++
ASCII
DATASET UNSTRUCTURED_GRID
POINTS 289 float
  0.562500   1.000000 0
  0.562500   0.625000 0
  0.625000   1.000000 0
  0.562500   0.937500 0
  0.562500   0.562500 0
  0.625000   0.937500 0
  0.562500   0.875000 0
  0.625000   0.750000 0
  0.625000   0.625000 0
  0.562500   0.812500 0
  0.562500   0.750000 0
  0.562500   0.687500 0
  0.625000   0.875000 0
  0.625000   0.812500 0
  0.625000   0.687500 0
  0.687500   0.125000 0
  0.875000   0.062500 0
  0.625000   0.125000 0
  0.625000   0.187500 0
  0.625000   0.250000 0
  0.812500   0.187500 0
  1.000000   0.125000 0
  0.687500   0.187500 0
  0.750000   0.125000 0
  0.937500   0.062500 0
  0.937500   0.125000 0
  0.750000   0.187500 0
  0.812500   0.062500 0
  0.812500   0.125000 0
  0.875000   0.687500 0
  0.187500   0.250000 0
  0.437500   0.250000 0
  0.375000   0.187500 0
  0.812500   0.625000 0
  0.125000   0.187500 0
  0.937500   0.750000 0
  0.250000   0.312500 0
  0.500000   0.312500 0
  0.625000   0.062500 0
  0.437500   0.500000 0
  0.375000   0.125000 0
  0.437500   0.187500 0
  0.437500   0.437500 0
  0.437500   0.375000 0
  0.875000   0.875000 0
  0.187500   0.375000 0
  0.687500   0.562500 0
  0.687500   0.625000 0
  0.000000   0.125000 0
  0.937500   0.625000 0
  0.250000   0.125000 0
  0.375000   0.062500 0
  0.375000   0.000000 0
  0.812500   0.500000 0
  0.125000   0.000000 0
  0.937500   0.937500 0
  0.250000   0.437500 0
  0.687500   0.875000 0
  0.687500   0.937500 0
  0.000000   0.437500 0
  0.500000   0.500000 0
  0.500000   0.437500 0
  0.750000   0.937500 0
  0.750000   1.000000 0
  0.062500   0.500000 0
  1.000000   1.000000 0
  0.312500   0.500000 0
  0.875000   0.562500 0
  0.187500   0.062500 0
  0.437500   0.125000 0
  0.437500   0.062500 0
  0.500000   0.375000 0
  0.937500   0.812500 0
  0.937500   0.875000 0
  0.250000   0.375000 0
  0.687500   0.812500 0
  0.000000   0.375000 0
  0.750000   0.562500 0
  0.062500   0.125000 0
  1.000000   0.562500 0
  1.000000   0.625000 0
  0.312500   0.125000 0
  0.562500   0.125000 0
  0.437500   0.000000 0
  0.875000   0.437500 0
  0.875000   0.500000 0
  0.187500   0.000000 0
  0.937500   0.562500 0
  0.937500   0.500000 0
  0.250000   0.062500 0
  0.687500   0.500000 0
  0.000000   0.062500 0
  0.500000   0.062500 0
  1.000000   0.875000 0
  1.000000   0.937500 0
  0.312500   0.437500 0
  0.750000   0.875000 0
  0.062500   0.437500 0
  0.812500   0.937500 0
  0.125000   0.500000 0
  0.375000   0.500000 0
  0.625000   0.562500 0
  0.625000   0.500000 0
  0.437500   0.312500 0
  0.875000   0.812500 0
  0.875000   0.750000 0
  0.187500   0.312500 0
  0.812500   0.687500 0
  0.812500   0.750000 0
  0.125000   0.250000 0
  0.375000   0.250000 0
  1.000000   0.687500 0
  0.312500   0.187500 0
  0.750000   0.687500 0
  0.750000   0.625000 0
  0.062500   0.187500 0
  0.562500   0.250000 0
  0.562500   0.187500 0
  0.375000   1.000000 0
  0.500000   0.562500 0
  0.500000   0.250000 0
  0.750000   0.250000 0
  0.500000   0.125000 0
  0.500000   0.187500 0
  1.000000   0.187500 0
  0.625000   0.375000 0
  0.875000   0.375000 0
  1.000000   0.437500 0
  0.312500   0.000000 0
  0.562500   0.000000 0
  0.812500   0.000000 0
  0.250000   0.687500 0
  0.000000   0.687500 0
  0.500000   1.000000 0
  0.250000   1.000000 0
  0.000000   1.000000 0
  0.437500   0.687500 0
  0.437500   0.625000 0
  0.187500   0.625000 0
  0.687500   0.750000 0
  0.000000   0.312500 0
  0.000000   0.250000 0
  0.375000   0.375000 0
  0.375000   0.312500 0
  0.812500   0.812500 0
  0.125000   0.312500 0
  0.875000   0.625000 0
  0.187500   0.187500 0
  0.187500   0.125000 0
  0.937500   1.000000 0
  0.250000   0.562500 0
  0.250000   0.500000 0
  0.687500   1.000000 0
  0.000000   0.500000 0
  0.687500   0.687500 0
  0.000000   0.187500 0
  0.937500   0.687500 0
  0.250000   0.250000 0
  0.250000   0.187500 0
  0.187500   0.687500 0
  0.000000   0.750000 0
  0.250000   0.750000 0
  0.125000   0.625000 0
  0.750000   0.750000 0
  0.062500   0.250000 0
  0.875000   0.937500 0
  0.187500   0.500000 0
  0.187500   0.437500 0
  0.812500   0.562500 0
  0.125000   0.125000 0
  0.125000   0.062500 0
  0.375000   0.625000 0
  0.375000   0.687500 0
  1.000000   0.750000 0
  0.312500   0.250000 0
  0.312500   0.312500 0
  0.812500   0.312500 0
  0.562500   0.312500 0
  0.375000   0.750000 0
  0.500000   0.625000 0
  0.250000   0.625000 0
  0.312500   0.687500 0
  0.750000   0.812500 0
  0.062500   0.312500 0
  0.062500   0.375000 0
  1.000000   0.812500 0
  0.312500   0.375000 0
  0.562500   0.375000 0
  0.687500   0.437500 0
  0.000000   0.000000 0
  0.500000   0.000000 0
  0.937500   0.437500 0
  0.250000   0.000000 0
  0.375000   0.437500 0
  0.812500   0.875000 0
  0.125000   0.375000 0
  0.125000   0.437500 0
  0.625000   0.437500 0
  1.000000   0.500000 0
  0.312500   0.062500 0
  0.750000   0.500000 0
  0.062500   0.000000 0
  0.062500   0.062500 0
  0.562500   0.062500 0
  0.062500   0.750000 0
  0.312500   0.750000 0
  0.312500   0.625000 0
  0.312500   0.562500 0
  0.062500   0.562500 0
  0.187500   1.000000 0
  0.437500   0.562500 0
  0.875000   1.000000 0
  0.187500   0.562500 0
  0.500000   0.937500 0
  0.250000   0.937500 0
  0.312500   1.000000 0
  0.125000   0.750000 0
  0.125000   0.687500 0
  1.000000   0.000000 0
  0.000000   0.937500 0
  0.000000   0.875000 0
  0.875000   0.125000 0
  0.875000   0.187500 0
  0.062500   0.812500 0
  0.312500   0.812500 0
  0.000000   0.812500 0
  0.000000   0.625000 0
  0.000000   0.562500 0
  0.062500   1.000000 0
  0.062500   0.937500 0
  0.937500   0.187500 0
  0.937500   0.250000 0
  0.062500   0.687500 0
  0.062500   0.625000 0
  0.125000   1.000000 0
  1.000000   0.250000 0
  1.000000   0.312500 0
  0.062500   0.875000 0
  0.125000   0.812500 0
  0.375000   0.812500 0
  0.125000   0.875000 0
  0.375000   0.937500 0
  0.375000   0.875000 0
  0.187500   0.750000 0
  0.187500   0.812500 0
  0.437500   0.812500 0
  0.187500   0.875000 0
  0.437500   0.875000 0
  0.375000   0.562500 0
  0.812500   1.000000 0
  0.125000   0.562500 0
  0.437500   1.000000 0
  0.437500   0.937500 0
  0.187500   0.937500 0
  0.125000   0.937500 0
  0.500000   0.687500 0
  0.500000   0.750000 0
  0.500000   0.812500 0
  0.250000   0.812500 0
  0.250000   0.875000 0
  0.500000   0.875000 0
  0.437500   0.750000 0
  0.312500   0.875000 0
  0.312500   0.937500 0
  0.687500   0.250000 0
  0.687500   0.312500 0
  0.937500   0.312500 0
  0.875000   0.250000 0
  0.625000   0.000000 0
  0.875000   0.000000 0
  0.687500   0.375000 0
  0.937500   0.375000 0
  0.875000   0.312500 0
  0.625000   0.312500 0
  0.687500   0.000000 0
  0.937500   0.000000 0
  0.750000   0.312500 0
  0.750000   0.375000 0
  1.000000   0.375000 0
  0.812500   0.250000 0
  0.562500   0.437500 0
  0.562500   0.500000 0
  0.687500   0.062500 0
  0.750000   0.437500 0
  0.750000   0.000000 0
  0.750000   0.062500 0
  1.000000   0.062500 0
  0.812500   0.375000 0
  0.812500   0.437500 0
CELLS 256 1280
4 169 170 148 68
4 151 166 56 167
4 195 45 196 167
4 54 170 201 202
4 109 34 30 147
4 40 32 81 112
4 192 89 86 68
4 48 91 78 202
4 99 64 196 97
4 71 43 37 103
4 74 186 56 95
4 109 164 34 115
4 50 81 158 112
4 122 69 92 70
4 195 145 45 106
4 110 143 174 175
4 157 30 158 147
4 40 69 32 41
4 50 158 148 147
4 141 155 164 115
4 122 123 69 41
4 142 186 143 175
4 60 39 61 42
4 40 51 69 70
4 120 31 123 41
4 157 174 36 175
4 50 148 89 68
4 48 78 155 115
4 52 83 51 70
4 151 56 66 95
4 71 61 43 42
4 169 148 34 147
4 100 193 39 42
4 40 81 51 199
4 110 174 32 112
4 109 30 145 106
4 100 66 193 95
4 169 34 78 115
4 190 92 83 70
4 50 89 81 199
4 54 86 170 68
4 74 56 45 167
4 142 143 43 103
4 153 59 64 97
4 99 196 166 167
4 169 78 170 202
4 142 193 186 95
4 192 128 89 199
4 74 45 36 106
4 110 31 143 103
4 76 184 59 97
4 142 43 193 42
4 52 51 128 199
4 189 201 91 202
4 120 37 31 103
4 74 36 186 175
4 195 196 184 97
4 141 164 140 183
4 157 158 174 112
4 109 145 164 183
4 195 184 145 183
4 110 32 31 41
4 157 36 30 106
4 76 140 184 183
4 171 172 206 181
4 178 172 261 136
4 256 261 255 136
4 256 257 261 245
4 180 150 206 207
4 60 119 39 210
4 118 215 241 263
4 178 205 172 181
4 216 243 238 244
4 162 217 233 232
4 180 206 131 181
4 179 137 119 210
4 216 204 217 232
4 220 237 219 229
4 216 217 243 159
4 259 258 262 224
4 240 254 237 229
4 153 64 227 208
4 161 205 258 224
4 240 237 238 223
4 226 227 233 208
4 234 228 254 229
4 171 248 137 210
4 160 132 204 232
4 180 131 138 159
4 133 251 213 252
4 171 206 248 207
4 162 138 217 159
4 161 258 243 244
4 220 225 237 223
4 151 150 166 212
4 260 247 257 245
4 259 262 214 263
4 151 66 150 207
4 234 254 209 253
4 162 233 250 208
4 242 241 262 263
4 171 137 172 136
4 161 243 131 159
4 160 204 225 223
4 161 131 205 181
4 179 255 137 136
4 216 238 204 223
4 100 39 248 210
4 260 213 247 252
4 226 233 132 232
4 134 214 215 263
4 180 138 150 212
4 178 261 239 245
4 259 246 258 244
4 178 239 205 224
4 240 238 246 244
4 242 262 239 224
4 99 250 64 208
4 240 246 254 253
4 242 239 247 245
4 135 219 228 229
4 99 166 250 212
4 259 214 246 253
4 118 241 251 252
4 100 248 66 207
4 134 209 214 253
4 162 250 138 212
4 242 247 241 252
4 71 187 61 280
4 102 281 197 280
4 122 92 82 203
4 17 18 82 117
4 122 82 123 117
4 19 264 273 265
4 267 279 222 20
4 125 273 270 265
4 267 272 279 176
4 19 116 18 117
4 21 25 286 24
4 23 28 26 20
4 23 285 28 27
4 218 286 275 24
4 85 53 84 288
4 235 236 231 266
4 221 222 28 20
4 267 222 231 230
4 268 38 129 203
4 125 270 197 188
4 126 287 272 176
4 277 270 276 265
4 267 231 272 266
4 125 197 187 280
4 190 129 92 203
4 277 276 287 176
4 19 18 264 22
4 17 82 38 203
4 102 197 90 188
4 126 84 287 288
4 284 130 285 27
4 121 276 264 265
4 71 37 187 177
4 120 123 116 117
4 198 88 127 191
4 221 16 25 24
4 23 26 15 22
4 121 279 276 176
4 235 231 124 230
4 125 187 273 177
4 278 271 236 266
4 277 287 283 288
4 284 285 274 282
4 278 127 271 191
4 269 275 16 24
4 200 283 53 288
4 23 15 285 282
4 121 26 279 20
4 21 124 25 230
4 19 273 116 177
4 200 90 283 188
4 126 271 84 191
4 269 16 130 27
4 17 38 15 282
4 221 25 222 230
4 121 264 26 22
4 120 116 37 177
4 60 61 281 280
4 277 283 270 188
4 126 272 271 266
4 268 274 38 282
4 85 84 88 191
4 17 15 18 22
4 221 28 16 27
4 93 94 73 55
4 85 88 67 87
4 80 49 79 87
4 44 104 73 72
4 146 33 67 168
4 211 165 149 55
4 8 47 14 154
4 105 104 108 144
4 105 108 29 107
4 7 139 13 75
4 44 165 194 98
4 200 53 77 168
4 8 1 101 4
4 2 5 152 58
4 260 6 213 3
4 105 35 104 72
4 96 57 182 75
4 7 14 139 154
4 146 29 33 107
4 7 13 10 9
4 12 13 57 75
4 85 67 53 168
4 44 73 165 55
4 63 152 62 58
4 8 101 47 46
4 96 182 194 144
4 60 281 119 4
4 12 5 6 3
4 173 185 35 72
4 65 149 94 55
4 146 67 49 87
4 114 113 47 154
4 163 108 182 144
4 12 6 13 9
4 173 35 111 156
4 163 182 139 75
4 260 257 6 9
4 105 29 35 156
4 163 139 113 154
4 256 10 257 9
4 146 49 29 156
4 163 113 108 107
4 80 111 49 156
4 102 101 281 4
4 12 57 5 58
4 44 194 104 144
4 96 194 62 98
4 2 0 5 3
4 93 73 185 72
4 179 119 1 4
4 200 77 90 46
4 114 33 113 107
4 7 10 14 11
4 96 62 57 58
4 133 213 0 3
4 102 90 101 46
4 256 255 10 11
4 63 62 249 98
4 114 47 77 46
4 179 1 255 11
4 211 249 165 98
4 114 77 33 168
4 198 79 88 87
4 8 14 1 11
CELL_TYPES 256
8
8
8
8
8
8
8
8
8
8
8
8
8
8
8
8
8
8
8
8
8
8
8
8
8
8
8
8
8
8
8
8
8
8
8
8
8
8
8
8
8
8
8
8
8
8
8
8
8
8
8
8
8
8
8
8
8
8
8
8
8
8
8
8
8
8
8
8
8
8
8
8
8
8
8
8
8
8
8
8
8
8
8
8
8
8
8
8
8
8
8
8
8
8
8
8
8
8
8
8
8
8
8
8
8
8
8
8
8
8
8
8
8
8
8
8
8
8
8
8
8
8
8
8
8
8
8
8
8
8
8
8
8
8
8
8
8
8
8
8
8
8
8
8
8
8
8
8
8
8
8
8
8
8
8
8
8
8
8
8
8
8
8
8
8
8
8
8
8
8
8
8
8
8
8
8
8
8
8
8
8
8
8
8
8
8
8
8
8
8
8
8
8
8
8
8
8
8
8
8
8
8
8
8
8
8
8
8
8
8
8
8
8
8
8
8
8
8
8
8
8
8
8
8
8
8
8
8
8
8
8
8
8
8
8
8
8
8
8
8
8
8
8
8
8
8
8
8
8
8
8
8
8
8
8
8
CELL_DATA 256
VECTORS vector_value float
-0.271721 -0.356149 0
0.483296 -0.415158 0
0.265597 -0.144504 0
-0.129921 -0.527054 0
0.0740799 -0.207748 0
-0.428921 -1.01919 0
-0.0777315 -0.312412 0
-0.0172571 -0.397941 0
0.238166 -0.271809 0
-0.161518 -4.40971 0
0.547953 -0.584764 0
0.0390538 -0.353207 0
-0.413413 -0.733871 0
0.403 -1.09716 0
0.188709 -0.16172 0
0.0468478 -0.926353 0
0.0930161 -0.203622 0
0.19621 -1.20131 0
-0.148528 -0.265615 0
0.0151627 -0.525875 0
1.4703 -2.53801 0
0.33383 -0.728796 0
-0.193286 -3.8107 0
-0.112657 -0.604869 0
0.858399 -3.62536 0
0.205551 -0.404467 0
-0.338994 -0.337534 0
0.0453313 -0.429569 0
-0.0432152 -0.402158 0
0.467291 -0.575559 0
-0.184533 -4.92885 0
-0.049215 -0.211232 0
0.50254 -1.16658 0
-0.110697 -0.703156 0
-0.176429 -1.27811 0
0.274811 -0.24592 0
0.247213 -0.354793 0
0.0342998 -0.455662 0
0.0475188 -0.484899 0
-0.22493 -0.936013 0
-0.0963952 -0.408808 0
0.374933 -0.25929 0
-0.184453 -1.79492 0
0.1201 -1.61179 0
0.355249 -0.255969 0
-0.142867 -0.596504 0
0.508534 -0.519691 0
-0.0145424 -0.669797 0
0.191057 -0.157312 0
-0.202214 -2.61197 0
0.261869 -1.28163 0
0.275426 -1.23347 0
-0.0473154 -1.00453 0
-0.120337 -0.643424 0
-0.0152143 -3.32393 0
0.292608 -0.413245 0
0.398352 -0.317876 0
0.0296365 -0.537816 0
-0.0076386 -0.444742 0
0.174156 -0.500171 0
0.27816 -0.499476 0
0.245134 -1.8857 0
0.217413 -0.150092 0
0.159276 -0.835635 0
0.0904724 -0.247271 0
1.01388 -2.86713 0
1.73696 -3.63898 0
0.437269 -2.81649 0
0.344492 -0.390701 0
0.0996082 -1.7189 0
0.437783 -1.35604 0
-0.132722 -0.693941 0
-0.0495571 -0.274062 0
-0.955359 -0.798386 0
0.143925 -0.521846 0
0.376322 -2.27284 0
-0.130279 -0.328306 0
0.13642 -0.586389 0
-0.646925 -0.909754 0
0.657402 -1.29482 0
0.376313 -0.234334 0
-0.0655726 -1.66821 0
-0.975047 -1.20762 0
0.088308 -0.142771 0
-0.308691 -1.24566 0
0.585681 -0.496948 0
0.121422 -1.35872 0
-0.0248639 -0.312471 0
-0.318536 -0.77848 0
-0.71074 -1.31552 0
0.34931 -0.529584 0
-1.17937 -1.29722 0
-0.490242 -0.794043 0
0.052905 -0.405527 0
0.329024 -0.497174 0
-1.06256 -2.59251 0
1.16547 -1.2871 0
0.175114 -0.296795 0
0.902589 -1.00752 0
-0.419331 -1.02661 0
0.560893 -1.9666 0
0.0903969 -1.46742 0
-1.23475 -1.23528 0
0.0282702 -0.30848 0
-0.783512 -0.930621 0
0.789379 -3.46491 0
0.0357655 -0.21077 0
0.371745 -1.74792 0
-0.593614 -2.07081 0
-0.286508 -0.628401 0
0.690253 -0.954316 0
0.252032 -0.47557 0
0.6312 -3.84536 0
0.2886 -0.575755 0
-0.296198 -1.88859 0
0.126797 -0.272102 0
0.768529 -2.44699 0
0.100898 -0.496674 0
0.81403 -0.603108 0
-0.0516105 -3.00473 0
0.132491 -0.973193 0
0.284882 -0.379915 0
1.32705 -0.9934 0
-0.157663 -1.53789 0
0.277222 -0.485783 0
0.803914 -1.07862 0
0.115495 -0.56134 0
0.0295539 -1.92319 0
-0.280869 -1.06722 0
0.15819 -0.990901 0
1.1608 -2.20427 0
0.910783 -0.827463 0
1.95278 -2.10639 0
0.243306 -0.38869 0
0.112393 -1.1342 0
0.311797 -0.61294 0
0.670953 -1.86243 0
0.387001 -0.594695 0
-0.0970048 -2.0455 0
-0.226889 -0.898898 0
0.0200761 -0.660888 0
-0.0371589 -1.86875 0
-0.0271915 -0.63237 0
0.32246 -0.725268 0
0.0541313 -0.456045 0
0.833844 -1.24922 0
0.247185 -1.89456 0
0.30575 -0.733764 0
0.879617 -1.46252 0
0.592737 -0.856998 0
0.583835 -1.04963 0
0.019785 -0.684863 0
0.219991 -1.98552 0
1.07818 -1.01504 0
0.161781 -0.452565 0
1.33461 -1.7944 0
0.509565 -1.13017 0
0.377345 -1.06027 0
0.0415645 -0.541764 0
0.359009 -0.620852 0
0.292211 -1.45487 0
0.569231 -1.2478 0
0.00446482 -0.268175 0
-0.0746499 -0.934273 0
-0.371902 -0.852594 0
0.447316 -0.722603 0
0.323566 -1.21255 0
0.128593 -0.333814 0
0.0343653 -0.285685 0
0.697002 -0.939251 0
-0.0173407 -0.5841 0
0.00920697 -0.290835 0
-0.0765786 -1.02064 0
0.0189537 -0.915701 0
-0.1677 -0.768151 0
-0.235556 -0.995919 0
0.236854 -2.13844 0
0.30656 -0.508059 0
0.248971 -1.44186 0
0.0473477 -0.420552 0
0.0168852 -0.526467 0
0.296371 -2.26837 0
0.127497 -0.69816 0
-0.00280986 -0.588699 0
0.226182 -1.42174 0
-0.582964 -1.74505 0
0.724967 -1.53319 0
0.449294 -0.977321 0
0.117214 -3.1251 0
-0.0114618 -0.413408 0
0.245981 -1.16755 0
0.0295141 -0.29481 0
-0.113083 -0.691398 0
-0.0431786 -0.470384 0
-0.0344447 -0.328084 0
-0.231782 -0.98372 0
-0.363681 -1.02427 0
-0.0471493 -1.38446 0
-0.0558115 -0.111887 0
-0.151823 -1.41108 0
-0.0286186 -1.26385 0
-0.457359 -0.0436144 0
-0.603639 -1.54487 0
-0.338857 -1.02487 0
0.56905 -1.31454 0
-0.259195 -0.541548 0
-0.939443 -0.805531 0
-0.0870813 -0.747732 0
-0.54355 -0.291277 0
-0.120873 -0.0681633 0
-0.232746 -1.28208 0
-0.312525 -0.0535034 0
-0.638963 -0.0695639 0
-0.144276 -0.698237 0
-0.401179 -1.3429 0
0.41079 -0.5662 0
-0.0105991 -0.245884 0
-0.530908 -1.35764 0
0.055177 -2.97191 0
-0.874163 -0.419118 0
-0.0731755 -0.392307 0
-0.126559 -0.881605 0
-0.127812 -0.56691 0
-0.138333 -0.423955 0
-0.290189 -1.0704 0
-0.730077 -0.0266594 0
-0.0144918 -0.236747 0
-0.520751 -0.394281 0
-1.12145 -0.631928 0
-0.0188331 -0.928037 0
-0.172274 -0.337655 0
-0.107029 -0.541666 0
-0.0558008 -0.748832 0
-0.14435 -0.94995 0
0.0459602 -0.346033 0
0.514498 -1.52154 0
-0.327887 -0.111071 0
-0.362345 -1.4106 0
-0.40873 -1.13022 0
-0.64104 -0.642215 0
-0.0451915 -0.493412 0
0.830221 -3.0871 0
-0.240717 -0.912941 0
-0.212774 -0.801516 0
-0.0309988 -0.221904 0
-0.22089 -0.28996 0
-0.904892 -0.95102 0
0.302736 -0.844793 0
0.66158 -1.07719 0
0.708775 -0.98717 0
-0.193418 -0.567906 0
1.05929 -2.59276 0
0.428927 -1.32573 0
-0.429944 -1.00428 0
-0.00758422 -0.263954 0
0.167854 -0.488992 0
