# vtk DataFile Version 2.0
Unstructured Grid by M++
ASCII
DATASET UNSTRUCTURED_GRID
POINTS 81 float
  1.000000   0.625000 0
  0.750000   0.375000 0
  1.000000   0.000000 0
  0.875000   0.875000 0
  0.750000   0.125000 0
  1.000000   1.000000 0
  0.875000   0.250000 0
  0.625000   0.875000 0
  1.000000   0.750000 0
  0.875000   0.000000 0
  1.000000   0.250000 0
  0.625000   0.375000 0
  0.875000   0.500000 0
  0.625000   0.625000 0
  1.000000   0.500000 0
  0.750000   0.500000 0
  0.750000   1.000000 0
  1.000000   0.125000 0
  0.625000   0.250000 0
  0.750000   0.750000 0
  0.625000   0.000000 0
  0.125000   0.375000 0
  0.000000   0.500000 0
  0.125000   0.625000 0
  0.625000   1.000000 0
  1.000000   0.875000 0
  0.875000   0.125000 0
  0.500000   0.250000 0
  0.625000   0.500000 0
  0.250000   0.625000 0
  0.000000   0.625000 0
  0.375000   0.500000 0
  0.375000   0.000000 0
  0.000000   0.125000 0
  0.125000   0.875000 0
  0.875000   1.000000 0
  0.750000   0.250000 0
  0.375000   0.375000 0
  0.250000   0.375000 0
  0.625000   0.750000 0
  0.125000   0.125000 0
  0.500000   0.000000 0
  0.250000   0.875000 0
  0.125000   0.500000 0
  0.500000   0.375000 0
  0.125000   0.000000 0
  0.250000   0.750000 0
  0.250000   0.500000 0
  0.000000   0.875000 0
  0.875000   0.625000 0
  0.500000   0.750000 0
  0.750000   0.625000 0
  0.250000   0.000000 0
  0.375000   0.750000 0
  0.750000   0.875000 0
  0.625000   0.125000 0
  0.250000   0.250000 0
  0.375000   1.000000 0
  0.375000   0.250000 0
  0.000000   0.375000 0
  0.500000   1.000000 0
  0.875000   0.750000 0
  0.750000   0.000000 0
  0.375000   0.125000 0
  0.500000   0.875000 0
  0.000000   0.000000 0
  0.125000   0.750000 0
  0.500000   0.625000 0
  0.125000   0.250000 0
  0.500000   0.125000 0
  0.250000   1.000000 0
  0.250000   0.125000 0
  0.000000   1.000000 0
  0.375000   0.875000 0
  0.000000   0.750000 0
  0.375000   0.625000 0
  0.000000   0.250000 0
  0.125000   1.000000 0
  1.000000   0.375000 0
  0.500000   0.500000 0
  0.875000   0.375000 0
CELLS 64 320
4 56 71 58 63
4 27 58 69 63
4 41 69 32 63
4 76 33 68 40
4 27 44 58 37
4 79 31 44 37
4 56 38 68 21
4 56 58 38 37
4 52 32 71 63
4 47 38 31 37
4 76 68 59 21
4 22 59 43 21
4 65 45 33 40
4 47 43 38 21
4 52 71 45 40
4 56 68 71 40
4 74 30 66 23
4 46 66 29 23
4 22 43 30 23
4 72 48 77 34
4 46 53 42 73
4 50 64 53 73
4 70 42 57 73
4 74 66 48 34
4 46 42 66 34
4 47 29 43 23
4 70 77 42 34
4 60 57 64 73
4 79 67 31 75
4 47 31 29 75
4 50 53 67 75
4 46 29 53 75
4 10 78 6 80
4 36 6 1 80
4 15 1 12 80
4 36 4 6 26
4 14 12 78 80
4 2 17 9 26
4 36 18 4 55
4 15 28 1 11
4 62 4 20 55
4 10 6 17 26
4 27 18 44 11
4 62 9 4 26
4 27 69 18 55
4 36 1 18 11
4 41 20 69 55
4 79 44 28 11
4 16 24 54 7
4 19 54 39 7
4 50 39 64 7
4 8 25 61 3
4 60 64 24 7
4 79 28 67 13
4 19 51 61 49
4 8 61 0 49
4 15 51 28 13
4 19 39 51 13
4 50 67 39 13
4 19 61 54 3
4 14 0 12 49
4 5 35 25 3
4 15 12 51 49
4 16 54 35 3
CELL_TYPES 64
8
8
8
8
8
8
8
8
8
8
8
8
8
8
8
8
8
8
8
8
8
8
8
8
8
8
8
8
8
8
8
8
8
8
8
8
8
8
8
8
8
8
8
8
8
8
8
8
8
8
8
8
8
8
8
8
8
8
8
8
8
8
8
8
CELL_DATA 64
VECTORS vector_value float
-2.25566 -1.24434 0
-2.52542 -1.75918 0
-0.031116 -0.395546 0
0.0248504 -0.274938 0
-2.19435 -1.76037 0
-0.188648 -1.24528 0
-0.214933 -0.905434 0
-1.35327 -0.61999 0
-0.456258 -2.70703 0
0.0484567 -0.214905 0
0.185918 -0.447296 0
0.052121 -0.752925 0
-0.00307962 -0.287611 0
0.0543063 -0.195351 0
-0.0868053 -3.40851 0
-0.862656 -2.598 0
-0.0387873 -0.791405 0
-0.00862513 -0.202912 0
-0.000910225 -0.816592 0
0.210611 -0.978022 0
0.105466 -0.361242 0
0.361071 -1.10218 0
1.19896 -1.07131 0
-0.0750412 -0.598072 0
-0.03683 -0.479244 0
-0.000571791 -0.168329 0
0.64978 -0.490708 0
1.3322 -0.472998 0
0.0935138 -0.833359 0
0.0579345 -0.276594 0
0.0466398 -0.819947 0
0.0286996 -0.373964 0
-0.0201838 -0.0922866 0
-0.233681 -0.436102 0
-0.782063 -1.00524 0
0.126367 -0.150402 0
-0.227517 -0.36397 0
0.0267793 -0.370246 0
-0.139731 -0.577286 0
-1.13982 -2.42939 0
0.0053217 -0.439227 0
0.117088 -0.246012 0
-2.41004 -2.39647 0
0.0298621 -0.129535 0
-1.03806 -1.14984 0
-1.30827 -1.34206 0
-0.00392784 -0.262294 0
-0.733081 -1.79295 0
0.697572 -1.60562 0
0.211714 -1.58963 0
0.562895 -1.39721 0
0.137326 -0.577317 0
1.15541 -1.65286 0
-0.114986 -1.19291 0
-0.00549099 -1.4245 0
0.0811057 -0.877072 0
-0.302078 -2.50654 0
0.195573 -2.58636 0
0.15129 -0.92384 0
0.248258 -1.89511 0
-0.144131 -0.734617 0
-0.280881 -0.49766 0
-0.275142 -1.47107 0
-0.16812 -1.23082 0
