# vtk DataFile Version 2.0
Unstructured Grid by M++
ASCII
DATASET UNSTRUCTURED_GRID
POINTS 289 float
  0.562500   1.000000 0
  0.562500   0.625000 0
  0.625000   1.000000 0
  0.562500   0.937500 0
  0.562500   0.562500 0
  0.625000   0.937500 0
  0.562500   0.875000 0
  0.625000   0.750000 0
  0.625000   0.625000 0
  0.562500   0.812500 0
  0.562500   0.750000 0
  0.562500   0.687500 0
  0.625000   0.875000 0
  0.625000   0.812500 0
  0.625000   0.687500 0
  0.687500   0.125000 0
  0.875000   0.062500 0
  0.625000   0.125000 0
  0.625000   0.187500 0
  0.625000   0.250000 0
  0.812500   0.187500 0
  1.000000   0.125000 0
  0.687500   0.187500 0
  0.750000   0.125000 0
  0.937500   0.062500 0
  0.937500   0.125000 0
  0.750000   0.187500 0
  0.812500   0.062500 0
  0.812500   0.125000 0
  0.875000   0.687500 0
  0.187500   0.250000 0
  0.437500   0.250000 0
  0.375000   0.187500 0
  0.812500   0.625000 0
  0.125000   0.187500 0
  0.937500   0.750000 0
  0.250000   0.312500 0
  0.500000   0.312500 0
  0.625000   0.062500 0
  0.437500   0.500000 0
  0.375000   0.125000 0
  0.437500   0.187500 0
  0.437500   0.437500 0
  0.437500   0.375000 0
  0.875000   0.875000 0
  0.187500   0.375000 0
  0.687500   0.562500 0
  0.687500   0.625000 0
  0.000000   0.125000 0
  0.937500   0.625000 0
  0.250000   0.125000 0
  0.375000   0.062500 0
  0.375000   0.000000 0
  0.812500   0.500000 0
  0.125000   0.000000 0
  0.937500   0.937500 0
  0.250000   0.437500 0
  0.687500   0.875000 0
  0.687500   0.937500 0
  0.000000   0.437500 0
  0.500000   0.500000 0
  0.500000   0.437500 0
  0.750000   0.937500 0
  0.750000   1.000000 0
  0.062500   0.500000 0
  1.000000   1.000000 0
  0.312500   0.500000 0
  0.875000   0.562500 0
  0.187500   0.062500 0
  0.437500   0.125000 0
  0.437500   0.062500 0
  0.500000   0.375000 0
  0.937500   0.812500 0
  0.937500   0.875000 0
  0.250000   0.375000 0
  0.687500   0.812500 0
  0.000000   0.375000 0
  0.750000   0.562500 0
  0.062500   0.125000 0
  1.000000   0.562500 0
  1.000000   0.625000 0
  0.312500   0.125000 0
  0.562500   0.125000 0
  0.437500   0.000000 0
  0.875000   0.437500 0
  0.875000   0.500000 0
  0.187500   0.000000 0
  0.937500   0.562500 0
  0.937500   0.500000 0
  0.250000   0.062500 0
  0.687500   0.500000 0
  0.000000   0.062500 0
  0.500000   0.062500 0
  1.000000   0.875000 0
  1.000000   0.937500 0
  0.312500   0.437500 0
  0.750000   0.875000 0
  0.062500   0.437500 0
  0.812500   0.937500 0
  0.125000   0.500000 0
  0.375000   0.500000 0
  0.625000   0.562500 0
  0.625000   0.500000 0
  0.437500   0.312500 0
  0.875000   0.812500 0
  0.875000   0.750000 0
  0.187500   0.312500 0
  0.812500   0.687500 0
  0.812500   0.750000 0
  0.125000   0.250000 0
  0.375000   0.250000 0
  1.000000   0.687500 0
  0.312500   0.187500 0
  0.750000   0.687500 0
  0.750000   0.625000 0
  0.062500   0.187500 0
  0.562500   0.250000 0
  0.562500   0.187500 0
  0.375000   1.000000 0
  0.500000   0.562500 0
  0.500000   0.250000 0
  0.750000   0.250000 0
  0.500000   0.125000 0
  0.500000   0.187500 0
  1.000000   0.187500 0
  0.625000   0.375000 0
  0.875000   0.375000 0
  1.000000   0.437500 0
  0.312500   0.000000 0
  0.562500   0.000000 0
  0.812500   0.000000 0
  0.250000   0.687500 0
  0.000000   0.687500 0
  0.500000   1.000000 0
  0.250000   1.000000 0
  0.000000   1.000000 0
  0.437500   0.687500 0
  0.437500   0.625000 0
  0.187500   0.625000 0
  0.687500   0.750000 0
  0.000000   0.312500 0
  0.000000   0.250000 0
  0.375000   0.375000 0
  0.375000   0.312500 0
  0.812500   0.812500 0
  0.125000   0.312500 0
  0.875000   0.625000 0
  0.187500   0.187500 0
  0.187500   0.125000 0
  0.937500   1.000000 0
  0.250000   0.562500 0
  0.250000   0.500000 0
  0.687500   1.000000 0
  0.000000   0.500000 0
  0.687500   0.687500 0
  0.000000   0.187500 0
  0.937500   0.687500 0
  0.250000   0.250000 0
  0.250000   0.187500 0
  0.187500   0.687500 0
  0.000000   0.750000 0
  0.250000   0.750000 0
  0.125000   0.625000 0
  0.750000   0.750000 0
  0.062500   0.250000 0
  0.875000   0.937500 0
  0.187500   0.500000 0
  0.187500   0.437500 0
  0.812500   0.562500 0
  0.125000   0.125000 0
  0.125000   0.062500 0
  0.375000   0.625000 0
  0.375000   0.687500 0
  1.000000   0.750000 0
  0.312500   0.250000 0
  0.312500   0.312500 0
  0.812500   0.312500 0
  0.562500   0.312500 0
  0.375000   0.750000 0
  0.500000   0.625000 0
  0.250000   0.625000 0
  0.312500   0.687500 0
  0.750000   0.812500 0
  0.062500   0.312500 0
  0.062500   0.375000 0
  1.000000   0.812500 0
  0.312500   0.375000 0
  0.562500   0.375000 0
  0.687500   0.437500 0
  0.000000   0.000000 0
  0.500000   0.000000 0
  0.937500   0.437500 0
  0.250000   0.000000 0
  0.375000   0.437500 0
  0.812500   0.875000 0
  0.125000   0.375000 0
  0.125000   0.437500 0
  0.625000   0.437500 0
  1.000000   0.500000 0
  0.312500   0.062500 0
  0.750000   0.500000 0
  0.062500   0.000000 0
  0.062500   0.062500 0
  0.562500   0.062500 0
  0.062500   0.750000 0
  0.312500   0.750000 0
  0.312500   0.625000 0
  0.312500   0.562500 0
  0.062500   0.562500 0
  0.187500   1.000000 0
  0.437500   0.562500 0
  0.875000   1.000000 0
  0.187500   0.562500 0
  0.500000   0.937500 0
  0.250000   0.937500 0
  0.312500   1.000000 0
  0.125000   0.750000 0
  0.125000   0.687500 0
  1.000000   0.000000 0
  0.000000   0.937500 0
  0.000000   0.875000 0
  0.875000   0.125000 0
  0.875000   0.187500 0
  0.062500   0.812500 0
  0.312500   0.812500 0
  0.000000   0.812500 0
  0.000000   0.625000 0
  0.000000   0.562500 0
  0.062500   1.000000 0
  0.062500   0.937500 0
  0.937500   0.187500 0
  0.937500   0.250000 0
  0.062500   0.687500 0
  0.062500   0.625000 0
  0.125000   1.000000 0
  1.000000   0.250000 0
  1.000000   0.312500 0
  0.062500   0.875000 0
  0.125000   0.812500 0
  0.375000   0.812500 0
  0.125000   0.875000 0
  0.375000   0.937500 0
  0.375000   0.875000 0
  0.187500   0.750000 0
  0.187500   0.812500 0
  0.437500   0.812500 0
  0.187500   0.875000 0
  0.437500   0.875000 0
  0.375000   0.562500 0
  0.812500   1.000000 0
  0.125000   0.562500 0
  0.437500   1.000000 0
  0.437500   0.937500 0
  0.187500   0.937500 0
  0.125000   0.937500 0
  0.500000   0.687500 0
  0.500000   0.750000 0
  0.500000   0.812500 0
  0.250000   0.812500 0
  0.250000   0.875000 0
  0.500000   0.875000 0
  0.437500   0.750000 0
  0.312500   0.875000 0
  0.312500   0.937500 0
  0.687500   0.250000 0
  0.687500   0.312500 0
  0.937500   0.312500 0
  0.875000   0.250000 0
  0.625000   0.000000 0
  0.875000   0.000000 0
  0.687500   0.375000 0
  0.937500   0.375000 0
  0.875000   0.312500 0
  0.625000   0.312500 0
  0.687500   0.000000 0
  0.937500   0.000000 0
  0.750000   0.312500 0
  0.750000   0.375000 0
  1.000000   0.375000 0
  0.812500   0.250000 0
  0.562500   0.437500 0
  0.562500   0.500000 0
  0.687500   0.062500 0
  0.750000   0.437500 0
  0.750000   0.000000 0
  0.750000   0.062500 0
  1.000000   0.062500 0
  0.812500   0.375000 0
  0.812500   0.437500 0
CELLS 256 1280
4 169 170 148 68
4 151 166 56 167
4 195 45 196 167
4 54 170 201 202
4 109 34 30 147
4 40 32 81 112
4 192 89 86 68
4 48 91 78 202
4 99 64 196 97
4 71 43 37 103
4 74 186 56 95
4 109 164 34 115
4 50 81 158 112
4 122 69 92 70
4 195 145 45 106
4 110 143 174 175
4 157 30 158 147
4 40 69 32 41
4 50 158 148 147
4 141 155 164 115
4 122 123 69 41
4 142 186 143 175
4 60 39 61 42
4 40 51 69 70
4 120 31 123 41
4 157 174 36 175
4 50 148 89 68
4 48 78 155 115
4 52 83 51 70
4 151 56 66 95
4 71 61 43 42
4 169 148 34 147
4 100 193 39 42
4 40 81 51 199
4 110 174 32 112
4 109 30 145 106
4 100 66 193 95
4 169 34 78 115
4 190 92 83 70
4 50 89 81 199
4 54 86 170 68
4 74 56 45 167
4 142 143 43 103
4 153 59 64 97
4 99 196 166 167
4 169 78 170 202
4 142 193 186 95
4 192 128 89 199
4 74 45 36 106
4 110 31 143 103
4 76 184 59 97
4 142 43 193 42
4 52 51 128 199
4 189 201 91 202
4 120 37 31 103
4 74 36 186 175
4 195 196 184 97
4 141 164 140 183
4 157 158 174 112
4 109 145 164 183
4 195 184 145 183
4 110 32 31 41
4 157 36 30 106
4 76 140 184 183
4 171 172 206 181
4 178 172 261 136
4 256 261 255 136
4 256 257 261 245
4 180 150 206 207
4 60 119 39 210
4 118 215 241 263
4 178 205 172 181
4 216 243 238 244
4 162 217 233 232
4 180 206 131 181
4 179 137 119 210
4 216 204 217 232
4 220 237 219 229
4 216 217 243 159
4 259 258 262 224
4 240 254 237 229
4 153 64 227 208
4 161 205 258 224
4 240 237 238 223
4 226 227 233 208
4 234 228 254 229
4 171 248 137 210
4 160 132 204 232
4 180 131 138 159
4 133 251 213 252
4 171 206 248 207
4 162 138 217 159
4 161 258 243 244
4 220 225 237 223
4 151 150 166 212
4 260 247 257 245
4 259 262 214 263
4 151 66 150 207
4 234 254 209 253
4 162 233 250 208
4 242 241 262 263
4 171 137 172 136
4 161 243 131 159
4 160 204 225 223
4 161 131 205 181
4 179 255 137 136
4 216 238 204 223
4 100 39 248 210
4 260 213 247 252
4 226 233 132 232
4 134 214 215 263
4 180 138 150 212
4 178 261 239 245
4 259 246 258 244
4 178 239 205 224
4 240 238 246 244
4 242 262 239 224
4 99 250 64 208
4 240 246 254 253
4 242 239 247 245
4 135 219 228 229
4 99 166 250 212
4 259 214 246 253
4 118 241 251 252
4 100 248 66 207
4 134 209 214 253
4 162 250 138 212
4 242 247 241 252
4 71 187 61 280
4 102 281 197 280
4 122 92 82 203
4 17 18 82 117
4 122 82 123 117
4 19 264 273 265
4 267 279 222 20
4 125 273 270 265
4 267 272 279 176
4 19 116 18 117
4 21 25 286 24
4 23 28 26 20
4 23 285 28 27
4 218 286 275 24
4 85 53 84 288
4 235 236 231 266
4 221 222 28 20
4 267 222 231 230
4 268 38 129 203
4 125 270 197 188
4 126 287 272 176
4 277 270 276 265
4 267 231 272 266
4 125 197 187 280
4 190 129 92 203
4 277 276 287 176
4 19 18 264 22
4 17 82 38 203
4 102 197 90 188
4 126 84 287 288
4 284 130 285 27
4 121 276 264 265
4 71 37 187 177
4 120 123 116 117
4 198 88 127 191
4 221 16 25 24
4 23 26 15 22
4 121 279 276 176
4 235 231 124 230
4 125 187 273 177
4 278 271 236 266
4 277 287 283 288
4 284 285 274 282
4 278 127 271 191
4 269 275 16 24
4 200 283 53 288
4 23 15 285 282
4 121 26 279 20
4 21 124 25 230
4 19 273 116 177
4 200 90 283 188
4 126 271 84 191
4 269 16 130 27
4 17 38 15 282
4 221 25 222 230
4 121 264 26 22
4 120 116 37 177
4 60 61 281 280
4 277 283 270 188
4 126 272 271 266
4 268 274 38 282
4 85 84 88 191
4 17 15 18 22
4 221 28 16 27
4 93 94 73 55
4 85 88 67 87
4 80 49 79 87
4 44 104 73 72
4 146 33 67 168
4 211 165 149 55
4 8 47 14 154
4 105 104 108 144
4 105 108 29 107
4 7 139 13 75
4 44 165 194 98
4 200 53 77 168
4 8 1 101 4
4 2 5 152 58
4 260 6 213 3
4 105 35 104 72
4 96 57 182 75
4 7 14 139 154
4 146 29 33 107
4 7 13 10 9
4 12 13 57 75
4 85 67 53 168
4 44 73 165 55
4 63 152 62 58
4 8 101 47 46
4 96 182 194 144
4 60 281 119 4
4 12 5 6 3
4 173 185 35 72
4 65 149 94 55
4 146 67 49 87
4 114 113 47 154
4 163 108 182 144
4 12 6 13 9
4 173 35 111 156
4 163 182 139 75
4 260 257 6 9
4 105 29 35 156
4 163 139 113 154
4 256 10 257 9
4 146 49 29 156
4 163 113 108 107
4 80 111 49 156
4 102 101 281 4
4 12 57 5 58
4 44 194 104 144
4 96 194 62 98
4 2 0 5 3
4 93 73 185 72
4 179 119 1 4
4 200 77 90 46
4 114 33 113 107
4 7 10 14 11
4 96 62 57 58
4 133 213 0 3
4 102 90 101 46
4 256 255 10 11
4 63 62 249 98
4 114 47 77 46
4 179 1 255 11
4 211 249 165 98
4 114 77 33 168
4 198 79 88 87
4 8 14 1 11
CELL_TYPES 256
8
8
8
8
8
8
8
8
8
8
8
8
8
8
8
8
8
8
8
8
8
8
8
8
8
8
8
8
8
8
8
8
8
8
8
8
8
8
8
8
8
8
8
8
8
8
8
8
8
8
8
8
8
8
8
8
8
8
8
8
8
8
8
8
8
8
8
8
8
8
8
8
8
8
8
8
8
8
8
8
8
8
8
8
8
8
8
8
8
8
8
8
8
8
8
8
8
8
8
8
8
8
8
8
8
8
8
8
8
8
8
8
8
8
8
8
8
8
8
8
8
8
8
8
8
8
8
8
8
8
8
8
8
8
8
8
8
8
8
8
8
8
8
8
8
8
8
8
8
8
8
8
8
8
8
8
8
8
8
8
8
8
8
8
8
8
8
8
8
8
8
8
8
8
8
8
8
8
8
8
8
8
8
8
8
8
8
8
8
8
8
8
8
8
8
8
8
8
8
8
8
8
8
8
8
8
8
8
8
8
8
8
8
8
8
8
8
8
8
8
8
8
8
8
8
8
8
8
8
8
8
8
8
8
8
8
8
8
8
8
8
8
8
8
8
8
8
8
8
8
8
8
8
8
8
8
CELL_DATA 256
VECTORS vector_value float
0.270683 -0.499977 0
0.210472 -0.455065 0
0.234868 -0.513073 0
0.0944264 -0.368524 0
0.130186 -0.144875 0
-0.180339 -0.886442 0
0.0197903 -0.925033 0
0.118202 -0.756733 0
0.217394 -0.703172 0
0.0686319 -0.790172 0
0.215852 -0.627126 0
0.179526 -0.57612 0
-0.167273 -0.80196 0
0.0611319 -0.371461 0
0.125642 -0.343084 0
0.217975 -0.781653 0
0.0855953 -0.255511 0
-0.036068 -0.512774 0
0.0168297 -0.40448 0
0.0823372 -1.29771 0
0.0989958 -0.41618 0
0.196989 -0.551887 0
0.363436 -1.39156 0
-0.000937204 -0.302724 0
0.127629 -0.501322 0
0.341854 -0.749216 0
0.00252416 -0.703875 0
0.167027 -1.09095 0
0.00815525 -0.246152 0
0.0878906 -0.448868 0
0.24432 -1.07974 0
0.204421 -0.271024 0
0.204776 -0.55654 0
-0.191973 -0.753535 0
-0.011252 -0.983974 0
0.0714164 -0.17307 0
0.0822159 -0.408619 0
0.302562 -0.540031 0
0.0329344 -0.336999 0
-0.200274 -0.923004 0
0.137951 -0.673136 0
0.320225 -0.559379 0
0.0194658 -0.487768 0
0.0568217 -1.66047 0
0.318051 -0.538945 0
0.325106 -0.502561 0
0.0693959 -0.346093 0
-0.122736 -1.13634 0
0.283833 -0.46385 0
0.00828892 -0.695842 0
0.0724397 -1.51389 0
0.0640683 -0.398477 0
-0.0623584 -0.468887 0
0.0292124 -0.581831 0
0.0315164 -0.560107 0
0.292742 -0.706233 0
0.137006 -0.558541 0
0.00725405 -1.38779 0
0.0294709 -0.673898 0
0.0208471 -0.570551 0
0.0434431 -0.596108 0
0.0271769 -0.644212 0
0.184163 -0.27724 0
0.0179365 -1.37839 0
-0.116265 -0.214687 0
-0.0963307 -0.515985 0
-0.0582107 -0.962888 0
0.471529 -1.28805 0
0.146732 -0.433884 0
0.112116 -1.41658 0
0.956827 -0.987377 0
-0.113159 -0.204135 0
-0.116408 -0.898247 0
-0.498945 -1.18985 0
-0.0710773 -0.304322 0
-0.252668 -1.16186 0
-0.148523 -0.968969 0
0.025453 -0.314656 0
-0.297718 -1.15241 0
-0.117785 -0.484811 0
0.0629221 -0.787211 0
-0.0884725 -1.63428 0
-0.227273 -0.454414 0
-0.134839 -0.960051 0
-0.26928 -1.29367 0
0.703711 -0.738007 0
-0.0914173 -0.63387 0
-0.0740971 -0.604889 0
-0.168394 -0.633185 0
0.510707 -0.987775 0
-0.0121694 -0.339608 0
-0.553242 -1.14389 0
-0.186349 -0.965007 0
-0.0238287 -0.3245 0
0.136686 -0.330088 0
0.732043 -1.34273 0
0.186763 -0.676995 0
0.155399 -0.470456 0
0.813667 -0.998544 0
-0.452614 -1.28407 0
0.609966 -1.02957 0
-0.176139 -0.593873 0
-0.366295 -0.918436 0
-0.0738386 -0.467822 0
-0.176448 -0.300822 0
-0.219113 -0.907022 0
-0.135983 -1.00194 0
0.172178 -0.639256 0
0.612089 -1.20431 0
-0.152607 -0.80214 0
0.989013 -0.934734 0
0.12635 -0.407896 0
0.0792466 -0.651104 0
-0.0975817 -0.813436 0
-0.0955646 -0.25431 0
-0.128502 -0.998843 0
0.0458145 -0.557605 0
0.0336031 -1.03675 0
-0.0291742 -1.07961 0
0.574865 -1.17263 0
0.319394 -0.722166 0
0.166549 -0.447766 0
-0.00137874 -0.848387 0
0.753069 -1.26152 0
0.174199 -0.462373 0
0.85082 -1.14177 0
-0.11232 -0.660179 0
0.714135 -1.35627 0
0.46363 -1.4412 0
0.108768 -1.49646 0
0.064525 -0.376548 0
0.250798 -0.442222 0
0.148572 -0.384938 0
1.27357 -1.63828 0
0.111201 -1.89431 0
0.480304 -1.28654 0
-0.320789 -1.74571 0
0.501992 -0.647237 0
0.0703224 -1.01333 0
0.77423 -2.41584 0
0.547009 -2.6732 0
0.0794989 -1.19524 0
0.248463 -1.69711 0
-0.0677225 -1.11941 0
0.32692 -2.75149 0
-0.150273 -1.88904 0
0.0257811 -0.308607 0
0.114237 -0.997061 0
-0.455244 -1.69823 0
0.0761695 -0.48749 0
-0.215889 -1.80895 0
0.34372 -1.61781 0
0.0329367 -0.423197 0
-0.202737 -0.870838 0
0.915027 -1.21515 0
0.0764456 -0.346177 0
-0.0603883 -0.655675 0
-0.176804 -1.44926 0
0.295933 -2.39153 0
0.731364 -1.14743 0
0.411423 -1.13728 0
0.268472 -0.525277 0
0.173152 -1.08396 0
0.2139 -1.83869 0
0.734472 -1.58584 0
-0.029056 -1.40874 0
-0.0849199 -0.946737 0
0.744623 -1.77945 0
-0.0252601 -1.23936 0
-0.107017 -0.685182 0
0.109936 -1.13222 0
0.0329694 -1.21827 0
0.440969 -2.44522 0
0.0211413 -0.650194 0
0.417077 -1.40561 0
0.68185 -2.01287 0
0.0192155 -0.857781 0
0.776891 -1.16749 0
-0.059142 -0.337503 0
-0.102603 -2.75166 0
0.526534 -2.87664 0
0.162867 -0.531086 0
0.0217077 -1.80383 0
1.20558 -1.79176 0
0.262345 -0.768514 0
0.305766 -1.2033 0
-0.0519854 -0.243249 0
-0.276928 -2.18332 0
0.0425702 -0.490437 0
0.437026 -2.71255 0
0.498765 -0.834221 0
0.448128 -3.00149 0
0.0630211 -1.41618 0
0.658795 -2.26763 0
0.0249003 -0.485069 0
-0.145676 -1.5614 0
0.55531 -2.51441 0
0.488164 -1.2483 0
-0.0597166 -0.78162 0
-0.16972 -1.06424 0
-0.212745 -1.69027 0
0.45879 -1.14635 0
0.259022 -0.81789 0
0.223643 -0.850424 0
-0.168655 -1.20296 0
0.24907 -0.917379 0
0.424021 -1.10248 0
-0.409248 -1.70658 0
0.22141 -1.1009 0
0.268552 -1.1742 0
0.174443 -2.53809 0
0.545076 -1.21618 0
0.339941 -0.869319 0
0.751504 -2.30946 0
0.207278 -1.49312 0
0.344284 -0.927097 0
-0.103074 -0.643795 0
0.0698446 -0.918797 0
0.0448125 -1.16815 0
0.374769 -1.22079 0
-0.205166 -1.06033 0
0.152489 -1.19402 0
0.299959 -1.60698 0
0.256046 -1.10512 0
0.0932482 -1.03272 0
0.417007 -1.22713 0
-0.121913 -0.679675 0
0.259222 -1.25975 0
0.562997 -1.36913 0
-0.453842 -1.52549 0
0.441693 -1.28377 0
0.572764 -1.53295 0
-0.0219902 -1.17963 0
0.330833 -1.3127 0
-0.0318757 -0.509586 0
-0.0454266 -1.06186 0
0.365526 -0.881546 0
-0.0266364 -0.909643 0
0.298314 -0.889498 0
0.284655 -1.10512 0
-0.113227 -1.38907 0
-0.270859 -1.19509 0
-0.0443041 -0.49634 0
0.412088 -1.46953 0
0.0793763 -1.13714 0
0.336911 -0.881486 0
0.431618 -1.05895 0
-0.15287 -0.72975 0
0.0490883 -1.56822 0
0.463429 -0.838435 0
0.0143407 -0.702725 0
-0.215122 -1.49131 0
0.626957 -0.938819 0
0.389439 -1.43394 0
0.145386 -0.678834 0
-0.125924 -1.13615 0
