# vtk DataFile Version 2.0
Unstructured Grid by M++
ASCII
DATASET UNSTRUCTURED_GRID
POINTS 81 float
  1.000000   0.625000 0
  0.750000   0.375000 0
  1.000000   0.000000 0
  0.875000   0.875000 0
  0.750000   0.125000 0
  1.000000   1.000000 0
  0.875000   0.250000 0
  0.625000   0.875000 0
  1.000000   0.750000 0
  0.875000   0.000000 0
  1.000000   0.250000 0
  0.625000   0.375000 0
  0.875000   0.500000 0
  0.625000   0.625000 0
  1.000000   0.500000 0
  0.750000   0.500000 0
  0.750000   1.000000 0
  1.000000   0.125000 0
  0.625000   0.250000 0
  0.750000   0.750000 0
  0.625000   0.000000 0
  0.125000   0.375000 0
  0.000000   0.500000 0
  0.125000   0.625000 0
  0.625000   1.000000 0
  1.000000   0.875000 0
  0.875000   0.125000 0
  0.500000   0.250000 0
  0.625000   0.500000 0
  0.250000   0.625000 0
  0.000000   0.625000 0
  0.375000   0.500000 0
  0.375000   0.000000 0
  0.000000   0.125000 0
  0.125000   0.875000 0
  0.875000   1.000000 0
  0.750000   0.250000 0
  0.375000   0.375000 0
  0.250000   0.375000 0
  0.625000   0.750000 0
  0.125000   0.125000 0
  0.500000   0.000000 0
  0.250000   0.875000 0
  0.125000   0.500000 0
  0.500000   0.375000 0
  0.125000   0.000000 0
  0.250000   0.750000 0
  0.250000   0.500000 0
  0.000000   0.875000 0
  0.875000   0.625000 0
  0.500000   0.750000 0
  0.750000   0.625000 0
  0.250000   0.000000 0
  0.375000   0.750000 0
  0.750000   0.875000 0
  0.625000   0.125000 0
  0.250000   0.250000 0
  0.375000   1.000000 0
  0.375000   0.250000 0
  0.000000   0.375000 0
  0.500000   1.000000 0
  0.875000   0.750000 0
  0.750000   0.000000 0
  0.375000   0.125000 0
  0.500000   0.875000 0
  0.000000   0.000000 0
  0.125000   0.750000 0
  0.500000   0.625000 0
  0.125000   0.250000 0
  0.500000   0.125000 0
  0.250000   1.000000 0
  0.250000   0.125000 0
  0.000000   1.000000 0
  0.375000   0.875000 0
  0.000000   0.750000 0
  0.375000   0.625000 0
  0.000000   0.250000 0
  0.125000   1.000000 0
  1.000000   0.375000 0
  0.500000   0.500000 0
  0.875000   0.375000 0
CELLS 64 320
4 56 71 58 63
4 27 58 69 63
4 41 69 32 63
4 76 33 68 40
4 27 44 58 37
4 79 31 44 37
4 56 38 68 21
4 56 58 38 37
4 52 32 71 63
4 47 38 31 37
4 76 68 59 21
4 22 59 43 21
4 65 45 33 40
4 47 43 38 21
4 52 71 45 40
4 56 68 71 40
4 74 30 66 23
4 46 66 29 23
4 22 43 30 23
4 72 48 77 34
4 46 53 42 73
4 50 64 53 73
4 70 42 57 73
4 74 66 48 34
4 46 42 66 34
4 47 29 43 23
4 70 77 42 34
4 60 57 64 73
4 79 67 31 75
4 47 31 29 75
4 50 53 67 75
4 46 29 53 75
4 10 78 6 80
4 36 6 1 80
4 15 1 12 80
4 36 4 6 26
4 14 12 78 80
4 2 17 9 26
4 36 18 4 55
4 15 28 1 11
4 62 4 20 55
4 10 6 17 26
4 27 18 44 11
4 62 9 4 26
4 27 69 18 55
4 36 1 18 11
4 41 20 69 55
4 79 44 28 11
4 16 24 54 7
4 19 54 39 7
4 50 39 64 7
4 8 25 61 3
4 60 64 24 7
4 79 28 67 13
4 19 51 61 49
4 8 61 0 49
4 15 51 28 13
4 19 39 51 13
4 50 67 39 13
4 19 61 54 3
4 14 0 12 49
4 5 35 25 3
4 15 12 51 49
4 16 54 35 3
CELL_TYPES 64
8
8
8
8
8
8
8
8
8
8
8
8
8
8
8
8
8
8
8
8
8
8
8
8
8
8
8
8
8
8
8
8
8
8
8
8
8
8
8
8
8
8
8
8
8
8
8
8
8
8
8
8
8
8
8
8
8
8
8
8
8
8
8
8
CELL_DATA 64
VECTORS vector_value float
-0.772451 -1.8517 0
0.211402 -0.580161 0
0.101331 -0.165938 0
-0.325919 -0.927179 0
-0.283211 -1.75578 0
-0.115077 -1.40852 0
-0.143459 -0.634689 0
-0.165243 -1.56343 0
-0.0611579 -0.949429 0
0.969536 -0.852193 0
-0.0871089 -0.37483 0
-0.0349658 -0.18302 0
-0.402659 -1.77495 0
0.634979 -1.53818 0
-0.423434 -0.569082 0
-0.879332 -0.595037 0
-0.0701544 -0.992967 0
-0.0408348 -2.02583 0
0.359218 -0.643987 0
-0.0120143 -1.08715 0
-0.240361 -0.455259 0
-0.0396551 -0.106377 0
-0.433319 -0.84341 0
0.11902 -0.744592 0
-0.126054 -2.15205 0
0.652445 -2.19534 0
-0.30437 -1.33349 0
0.128245 -0.236244 0
0.134963 -0.611636 0
0.314744 -0.15897 0
0.00246485 -0.178104 0
0.0593155 -0.302263 0
0.35636 -0.913981 0
0.729731 -1.23487 0
0.423355 -0.582489 0
-0.174669 -1.14533 0
0.0410071 -0.271039 0
-0.151332 -0.34602 0
0.502831 -1.58398 0
0.980612 -1.38855 0
0.0136144 -2.01009 0
-0.21145 -0.940175 0
0.58756 -0.989109 0
-0.351714 -1.62242 0
0.262305 -0.376425 0
0.089369 -0.533313 0
0.396034 -0.562074 0
-0.124187 -1.776 0
0.0308053 -2.18464 0
0.0369263 -2.94679 0
-0.0343051 -0.507072 0
-0.0465582 -0.315864 0
0.748053 -0.906908 0
-0.692084 -2.02868 0
-0.0116158 -1.44759 0
-0.0407806 -0.24834 0
-1.08294 -1.57349 0
-0.0954661 -1.71205 0
-0.317801 -1.09285 0
-0.110278 -0.772004 0
0.00736642 -0.20242 0
-0.306825 -0.837926 0
-0.26342 -0.585465 0
-0.642779 -0.570238 0
