# vtk DataFile Version 2.0
Unstructured Grid by M++
ASCII
DATASET UNSTRUCTURED_GRID
POINTS 81 float
  1.000000   0.625000 0
  0.750000   0.375000 0
  1.000000   0.000000 0
  0.875000   0.875000 0
  0.750000   0.125000 0
  1.000000   1.000000 0
  0.875000   0.250000 0
  0.625000   0.875000 0
  1.000000   0.750000 0
  0.875000   0.000000 0
  1.000000   0.250000 0
  0.625000   0.375000 0
  0.875000   0.500000 0
  0.625000   0.625000 0
  1.000000   0.500000 0
  0.750000   0.500000 0
  0.750000   1.000000 0
  1.000000   0.125000 0
  0.625000   0.250000 0
  0.750000   0.750000 0
  0.625000   0.000000 0
  0.125000   0.375000 0
  0.000000   0.500000 0
  0.125000   0.625000 0
  0.625000   1.000000 0
  1.000000   0.875000 0
  0.875000   0.125000 0
  0.500000   0.250000 0
  0.625000   0.500000 0
  0.250000   0.625000 0
  0.000000   0.625000 0
  0.375000   0.500000 0
  0.375000   0.000000 0
  0.000000   0.125000 0
  0.125000   0.875000 0
  0.875000   1.000000 0
  0.750000   0.250000 0
  0.375000   0.375000 0
  0.250000   0.375000 0
  0.625000   0.750000 0
  0.125000   0.125000 0
  0.500000   0.000000 0
  0.250000   0.875000 0
  0.125000   0.500000 0
  0.500000   0.375000 0
  0.125000   0.000000 0
  0.250000   0.750000 0
  0.250000   0.500000 0
  0.000000   0.875000 0
  0.875000   0.625000 0
  0.500000   0.750000 0
  0.750000   0.625000 0
  0.250000   0.000000 0
  0.375000   0.750000 0
  0.750000   0.875000 0
  0.625000   0.125000 0
  0.250000   0.250000 0
  0.375000   1.000000 0
  0.375000   0.250000 0
  0.000000   0.375000 0
  0.500000   1.000000 0
  0.875000   0.750000 0
  0.750000   0.000000 0
  0.375000   0.125000 0
  0.500000   0.875000 0
  0.000000   0.000000 0
  0.125000   0.750000 0
  0.500000   0.625000 0
  0.125000   0.250000 0
  0.500000   0.125000 0
  0.250000   1.000000 0
  0.250000   0.125000 0
  0.000000   1.000000 0
  0.375000   0.875000 0
  0.000000   0.750000 0
  0.375000   0.625000 0
  0.000000   0.250000 0
  0.125000   1.000000 0
  1.000000   0.375000 0
  0.500000   0.500000 0
  0.875000   0.375000 0
CELLS 64 320
4 56 71 58 63
4 27 58 69 63
4 41 69 32 63
4 76 33 68 40
4 27 44 58 37
4 79 31 44 37
4 56 38 68 21
4 56 58 38 37
4 52 32 71 63
4 47 38 31 37
4 76 68 59 21
4 22 59 43 21
4 65 45 33 40
4 47 43 38 21
4 52 71 45 40
4 56 68 71 40
4 74 30 66 23
4 46 66 29 23
4 22 43 30 23
4 72 48 77 34
4 46 53 42 73
4 50 64 53 73
4 70 42 57 73
4 74 66 48 34
4 46 42 66 34
4 47 29 43 23
4 70 77 42 34
4 60 57 64 73
4 79 67 31 75
4 47 31 29 75
4 50 53 67 75
4 46 29 53 75
4 10 78 6 80
4 36 6 1 80
4 15 1 12 80
4 36 4 6 26
4 14 12 78 80
4 2 17 9 26
4 36 18 4 55
4 15 28 1 11
4 62 4 20 55
4 10 6 17 26
4 27 18 44 11
4 62 9 4 26
4 27 69 18 55
4 36 1 18 11
4 41 20 69 55
4 79 44 28 11
4 16 24 54 7
4 19 54 39 7
4 50 39 64 7
4 8 25 61 3
4 60 64 24 7
4 79 28 67 13
4 19 51 61 49
4 8 61 0 49
4 15 51 28 13
4 19 39 51 13
4 50 67 39 13
4 19 61 54 3
4 14 0 12 49
4 5 35 25 3
4 15 12 51 49
4 16 54 35 3
CELL_TYPES 64
8
8
8
8
8
8
8
8
8
8
8
8
8
8
8
8
8
8
8
8
8
8
8
8
8
8
8
8
8
8
8
8
8
8
8
8
8
8
8
8
8
8
8
8
8
8
8
8
8
8
8
8
8
8
8
8
8
8
8
8
8
8
8
8
CELL_DATA 64
VECTORS vector_value float
-0.415228 -2.63619 0
-0.47736 -1.30288 0
-0.197484 -2.48469 0
0.125728 -0.968375 0
-0.769475 -2.41067 0
-0.0658331 -2.7525 0
-0.0293508 -0.0680313 0
-0.599139 -1.43673 0
-0.00685254 -2.24687 0
0.664099 -1.01806 0
-0.0702559 -0.993856 0
-0.0211097 -0.833785 0
0.0168926 -0.73428 0
-0.011796 -0.323315 0
-0.00929194 -0.759185 0
-0.0617735 -0.238972 0
-0.230485 -2.10568 0
-0.257161 -0.897857 0
0.508054 -1.36643 0
0.0895907 -0.66055 0
-0.0215705 -0.0259744 0
-0.00849132 -0.115851 0
-0.500253 -0.101625 0
-0.282739 -1.27367 0
-0.206848 -1.73111 0
1.49788 -1.19447 0
-0.537076 -2.06718 0
0.414387 -0.57565 0
-0.327206 -1.27155 0
0.749425 -0.249843 0
-0.0841327 -0.206531 0
0.0114765 -0.0440581 0
0.0355748 -0.121952 0
-0.314207 -0.813772 0
-0.2015 -0.702922 0
0.0713441 -0.105382 0
-0.207764 -0.359061 0
0.015452 -0.383381 0
-0.392252 -0.751767 0
-0.128055 -0.962069 0
-0.00351074 -0.194486 0
0.0670135 -0.301898 0
-0.253411 -1.46492 0
0.0148496 -0.0889993 0
-0.918143 -1.69454 0
-0.490123 -0.690074 0
-0.0751176 -1.10811 0
-0.361923 -1.04829 0
0.738395 -0.417847 0
-0.467611 -1.17127 0
-0.070796 -1.00128 0
-0.191035 -0.964843 0
0.857412 -1.58401 0
-0.652229 -1.81788 0
-0.211422 -0.990814 0
-0.0216456 -0.638531 0
-0.35524 -0.910525 0
-0.832564 -1.15457 0
-0.81739 -1.96195 0
-0.817577 -1.716 0
-0.0262919 -0.598018 0
0.0229618 -1.55471 0
-0.149998 -0.591289 0
0.538867 -1.03843 0
