# vtk DataFile Version 2.0
Unstructured Grid by M++
ASCII
DATASET UNSTRUCTURED_GRID
POINTS 81 float
  1.000000   0.625000 0
  0.750000   0.375000 0
  1.000000   0.000000 0
  0.875000   0.875000 0
  0.750000   0.125000 0
  1.000000   1.000000 0
  0.875000   0.250000 0
  0.625000   0.875000 0
  1.000000   0.750000 0
  0.875000   0.000000 0
  1.000000   0.250000 0
  0.625000   0.375000 0
  0.875000   0.500000 0
  0.625000   0.625000 0
  1.000000   0.500000 0
  0.750000   0.500000 0
  0.750000   1.000000 0
  1.000000   0.125000 0
  0.625000   0.250000 0
  0.750000   0.750000 0
  0.625000   0.000000 0
  0.125000   0.375000 0
  0.000000   0.500000 0
  0.125000   0.625000 0
  0.625000   1.000000 0
  1.000000   0.875000 0
  0.875000   0.125000 0
  0.500000   0.250000 0
  0.625000   0.500000 0
  0.250000   0.625000 0
  0.000000   0.625000 0
  0.375000   0.500000 0
  0.375000   0.000000 0
  0.000000   0.125000 0
  0.125000   0.875000 0
  0.875000   1.000000 0
  0.750000   0.250000 0
  0.375000   0.375000 0
  0.250000   0.375000 0
  0.625000   0.750000 0
  0.125000   0.125000 0
  0.500000   0.000000 0
  0.250000   0.875000 0
  0.125000   0.500000 0
  0.500000   0.375000 0
  0.125000   0.000000 0
  0.250000   0.750000 0
  0.250000   0.500000 0
  0.000000   0.875000 0
  0.875000   0.625000 0
  0.500000   0.750000 0
  0.750000   0.625000 0
  0.250000   0.000000 0
  0.375000   0.750000 0
  0.750000   0.875000 0
  0.625000   0.125000 0
  0.250000   0.250000 0
  0.375000   1.000000 0
  0.375000   0.250000 0
  0.000000   0.375000 0
  0.500000   1.000000 0
  0.875000   0.750000 0
  0.750000   0.000000 0
  0.375000   0.125000 0
  0.500000   0.875000 0
  0.000000   0.000000 0
  0.125000   0.750000 0
  0.500000   0.625000 0
  0.125000   0.250000 0
  0.500000   0.125000 0
  0.250000   1.000000 0
  0.250000   0.125000 0
  0.000000   1.000000 0
  0.375000   0.875000 0
  0.000000   0.750000 0
  0.375000   0.625000 0
  0.000000   0.250000 0
  0.125000   1.000000 0
  1.000000   0.375000 0
  0.500000   0.500000 0
  0.875000   0.375000 0
CELLS 64 320
4 56 71 58 63
4 27 58 69 63
4 41 69 32 63
4 76 33 68 40
4 27 44 58 37
4 79 31 44 37
4 56 38 68 21
4 56 58 38 37
4 52 32 71 63
4 47 38 31 37
4 76 68 59 21
4 22 59 43 21
4 65 45 33 40
4 47 43 38 21
4 52 71 45 40
4 56 68 71 40
4 74 30 66 23
4 46 66 29 23
4 22 43 30 23
4 72 48 77 34
4 46 53 42 73
4 50 64 53 73
4 70 42 57 73
4 74 66 48 34
4 46 42 66 34
4 47 29 43 23
4 70 77 42 34
4 60 57 64 73
4 79 67 31 75
4 47 31 29 75
4 50 53 67 75
4 46 29 53 75
4 10 78 6 80
4 36 6 1 80
4 15 1 12 80
4 36 4 6 26
4 14 12 78 80
4 2 17 9 26
4 36 18 4 55
4 15 28 1 11
4 62 4 20 55
4 10 6 17 26
4 27 18 44 11
4 62 9 4 26
4 27 69 18 55
4 36 1 18 11
4 41 20 69 55
4 79 44 28 11
4 16 24 54 7
4 19 54 39 7
4 50 39 64 7
4 8 25 61 3
4 60 64 24 7
4 79 28 67 13
4 19 51 61 49
4 8 61 0 49
4 15 51 28 13
4 19 39 51 13
4 50 67 39 13
4 19 61 54 3
4 14 0 12 49
4 5 35 25 3
4 15 12 51 49
4 16 54 35 3
CELL_TYPES 64
8
8
8
8
8
8
8
8
8
8
8
8
8
8
8
8
8
8
8
8
8
8
8
8
8
8
8
8
8
8
8
8
8
8
8
8
8
8
8
8
8
8
8
8
8
8
8
8
8
8
8
8
8
8
8
8
8
8
8
8
8
8
8
8
CELL_DATA 64
VECTORS vector_value float
0.777406 -1.74347 0
2.27347 -3.113 0
0.107958 -1.97263 0
-0.000428372 -0.011691 0
-0.39036 -2.55945 0
-1.63854 -3.11375 0
0.334785 -0.383169 0
0.200798 -2.9333 0
0.0189148 -0.90841 0
-0.276346 -1.17351 0
0.045596 -0.0618938 0
0.107895 -0.158009 0
-0.00734584 -0.0280689 0
0.206263 -0.947242 0
-0.01762 -0.272462 0
-0.00307813 -0.208666 0
0.00529482 -0.401393 0
-0.00362526 -0.268329 0
0.03718 -0.374008 0
0.288744 -0.485072 0
0.54227 -1.94205 0
0.379109 -0.117675 0
-0.00571518 -1.42102 0
0.00780574 -0.454487 0
0.435833 -0.884164 0
-0.130433 -0.585081 0
0.510639 -1.58356 0
-0.0438156 -0.162118 0
0.35109 -0.981026 0
0.102913 -1.03921 0
0.283827 -0.245264 0
0.388175 -2.18582 0
-0.272175 -0.769674 0
-0.445288 -0.941387 0
1.00649 -1.10567 0
-0.541598 -0.881446 0
0.2538 -0.487449 0
-0.0115614 -0.0825579 0
-0.440062 -0.669896 0
0.132617 -0.391537 0
0.321912 -2.59888 0
-0.0312748 -0.140542 0
-0.156042 -0.221019 0
-0.138635 -0.180193 0
1.23445 -1.23129 0
-0.0581513 -0.13011 0
0.810722 -1.95679 0
-0.401376 -0.622832 0
0.327009 -1.8404 0
-0.530564 -3.80096 0
0.334541 -0.325763 0
-0.0235154 -0.0976419 0
0.671736 -0.624691 0
-1.95581 -2.73944 0
0.0355396 -0.118099 0
0.0102956 -0.111072 0
0.0987883 -1.97235 0
-0.735704 -3.89055 0
-0.0630649 -0.77947 0
-0.360128 -0.377266 0
0.0382047 -0.183506 0
-0.424421 -0.378728 0
0.0667494 -0.125377 0
-0.973579 -1.5044 0
