# vtk DataFile Version 2.0
Unstructured Grid by M++
ASCII
DATASET UNSTRUCTURED_GRID
POINTS 289 float
  0.562500   1.000000 0
  0.562500   0.625000 0
  0.625000   1.000000 0
  0.562500   0.937500 0
  0.562500   0.562500 0
  0.625000   0.937500 0
  0.562500   0.875000 0
  0.625000   0.750000 0
  0.625000   0.625000 0
  0.562500   0.812500 0
  0.562500   0.750000 0
  0.562500   0.687500 0
  0.625000   0.875000 0
  0.625000   0.812500 0
  0.625000   0.687500 0
  0.687500   0.125000 0
  0.875000   0.062500 0
  0.625000   0.125000 0
  0.625000   0.187500 0
  0.625000   0.250000 0
  0.812500   0.187500 0
  1.000000   0.125000 0
  0.687500   0.187500 0
  0.750000   0.125000 0
  0.937500   0.062500 0
  0.937500   0.125000 0
  0.750000   0.187500 0
  0.812500   0.062500 0
  0.812500   0.125000 0
  0.875000   0.687500 0
  0.187500   0.250000 0
  0.437500   0.250000 0
  0.375000   0.187500 0
  0.812500   0.625000 0
  0.125000   0.187500 0
  0.937500   0.750000 0
  0.250000   0.312500 0
  0.500000   0.312500 0
  0.625000   0.062500 0
  0.437500   0.500000 0
  0.375000   0.125000 0
  0.437500   0.187500 0
  0.437500   0.437500 0
  0.437500   0.375000 0
  0.875000   0.875000 0
  0.187500   0.375000 0
  0.687500   0.562500 0
  0.687500   0.625000 0
  0.000000   0.125000 0
  0.937500   0.625000 0
  0.250000   0.125000 0
  0.375000   0.062500 0
  0.375000   0.000000 0
  0.812500   0.500000 0
  0.125000   0.000000 0
  0.937500   0.937500 0
  0.250000   0.437500 0
  0.687500   0.875000 0
  0.687500   0.937500 0
  0.000000   0.437500 0
  0.500000   0.500000 0
  0.500000   0.437500 0
  0.750000   0.937500 0
  0.750000   1.000000 0
  0.062500   0.500000 0
  1.000000   1.000000 0
  0.312500   0.500000 0
  0.875000   0.562500 0
  0.187500   0.062500 0
  0.437500   0.125000 0
  0.437500   0.062500 0
  0.500000   0.375000 0
  0.937500   0.812500 0
  0.937500   0.875000 0
  0.250000   0.375000 0
  0.687500   0.812500 0
  0.000000   0.375000 0
  0.750000   0.562500 0
  0.062500   0.125000 0
  1.000000   0.562500 0
  1.000000   0.625000 0
  0.312500   0.125000 0
  0.562500   0.125000 0
  0.437500   0.000000 0
  0.875000   0.437500 0
  0.875000   0.500000 0
  0.187500   0.000000 0
  0.937500   0.562500 0
  0.937500   0.500000 0
  0.250000   0.062500 0
  0.687500   0.500000 0
  0.000000   0.062500 0
  0.500000   0.062500 0
  1.000000   0.875000 0
  1.000000   0.937500 0
  0.312500   0.437500 0
  0.750000   0.875000 0
  0.062500   0.437500 0
  0.812500   0.937500 0
  0.125000   0.500000 0
  0.375000   0.500000 0
  0.625000   0.562500 0
  0.625000   0.500000 0
  0.437500   0.312500 0
  0.875000   0.812500 0
  0.875000   0.750000 0
  0.187500   0.312500 0
  0.812500   0.687500 0
  0.812500   0.750000 0
  0.125000   0.250000 0
  0.375000   0.250000 0
  1.000000   0.687500 0
  0.312500   0.187500 0
  0.750000   0.687500 0
  0.750000   0.625000 0
  0.062500   0.187500 0
  0.562500   0.250000 0
  0.562500   0.187500 0
  0.375000   1.000000 0
  0.500000   0.562500 0
  0.500000   0.250000 0
  0.750000   0.250000 0
  0.500000   0.125000 0
  0.500000   0.187500 0
  1.000000   0.187500 0
  0.625000   0.375000 0
  0.875000   0.375000 0
  1.000000   0.437500 0
  0.312500   0.000000 0
  0.562500   0.000000 0
  0.812500   0.000000 0
  0.250000   0.687500 0
  0.000000   0.687500 0
  0.500000   1.000000 0
  0.250000   1.000000 0
  0.000000   1.000000 0
  0.437500   0.687500 0
  0.437500   0.625000 0
  0.187500   0.625000 0
  0.687500   0.750000 0
  0.000000   0.312500 0
  0.000000   0.250000 0
  0.375000   0.375000 0
  0.375000   0.312500 0
  0.812500   0.812500 0
  0.125000   0.312500 0
  0.875000   0.625000 0
  0.187500   0.187500 0
  0.187500   0.125000 0
  0.937500   1.000000 0
  0.250000   0.562500 0
  0.250000   0.500000 0
  0.687500   1.000000 0
  0.000000   0.500000 0
  0.687500   0.687500 0
  0.000000   0.187500 0
  0.937500   0.687500 0
  0.250000   0.250000 0
  0.250000   0.187500 0
  0.187500   0.687500 0
  0.000000   0.750000 0
  0.250000   0.750000 0
  0.125000   0.625000 0
  0.750000   0.750000 0
  0.062500   0.250000 0
  0.875000   0.937500 0
  0.187500   0.500000 0
  0.187500   0.437500 0
  0.812500   0.562500 0
  0.125000   0.125000 0
  0.125000   0.062500 0
  0.375000   0.625000 0
  0.375000   0.687500 0
  1.000000   0.750000 0
  0.312500   0.250000 0
  0.312500   0.312500 0
  0.812500   0.312500 0
  0.562500   0.312500 0
  0.375000   0.750000 0
  0.500000   0.625000 0
  0.250000   0.625000 0
  0.312500   0.687500 0
  0.750000   0.812500 0
  0.062500   0.312500 0
  0.062500   0.375000 0
  1.000000   0.812500 0
  0.312500   0.375000 0
  0.562500   0.375000 0
  0.687500   0.437500 0
  0.000000   0.000000 0
  0.500000   0.000000 0
  0.937500   0.437500 0
  0.250000   0.000000 0
  0.375000   0.437500 0
  0.812500   0.875000 0
  0.125000   0.375000 0
  0.125000   0.437500 0
  0.625000   0.437500 0
  1.000000   0.500000 0
  0.312500   0.062500 0
  0.750000   0.500000 0
  0.062500   0.000000 0
  0.062500   0.062500 0
  0.562500   0.062500 0
  0.062500   0.750000 0
  0.312500   0.750000 0
  0.312500   0.625000 0
  0.312500   0.562500 0
  0.062500   0.562500 0
  0.187500   1.000000 0
  0.437500   0.562500 0
  0.875000   1.000000 0
  0.187500   0.562500 0
  0.500000   0.937500 0
  0.250000   0.937500 0
  0.312500   1.000000 0
  0.125000   0.750000 0
  0.125000   0.687500 0
  1.000000   0.000000 0
  0.000000   0.937500 0
  0.000000   0.875000 0
  0.875000   0.125000 0
  0.875000   0.187500 0
  0.062500   0.812500 0
  0.312500   0.812500 0
  0.000000   0.812500 0
  0.000000   0.625000 0
  0.000000   0.562500 0
  0.062500   1.000000 0
  0.062500   0.937500 0
  0.937500   0.187500 0
  0.937500   0.250000 0
  0.062500   0.687500 0
  0.062500   0.625000 0
  0.125000   1.000000 0
  1.000000   0.250000 0
  1.000000   0.312500 0
  0.062500   0.875000 0
  0.125000   0.812500 0
  0.375000   0.812500 0
  0.125000   0.875000 0
  0.375000   0.937500 0
  0.375000   0.875000 0
  0.187500   0.750000 0
  0.187500   0.812500 0
  0.437500   0.812500 0
  0.187500   0.875000 0
  0.437500   0.875000 0
  0.375000   0.562500 0
  0.812500   1.000000 0
  0.125000   0.562500 0
  0.437500   1.000000 0
  0.437500   0.937500 0
  0.187500   0.937500 0
  0.125000   0.937500 0
  0.500000   0.687500 0
  0.500000   0.750000 0
  0.500000   0.812500 0
  0.250000   0.812500 0
  0.250000   0.875000 0
  0.500000   0.875000 0
  0.437500   0.750000 0
  0.312500   0.875000 0
  0.312500   0.937500 0
  0.687500   0.250000 0
  0.687500   0.312500 0
  0.937500   0.312500 0
  0.875000   0.250000 0
  0.625000   0.000000 0
  0.875000   0.000000 0
  0.687500   0.375000 0
  0.937500   0.375000 0
  0.875000   0.312500 0
  0.625000   0.312500 0
  0.687500   0.000000 0
  0.937500   0.000000 0
  0.750000   0.312500 0
  0.750000   0.375000 0
  1.000000   0.375000 0
  0.812500   0.250000 0
  0.562500   0.437500 0
  0.562500   0.500000 0
  0.687500   0.062500 0
  0.750000   0.437500 0
  0.750000   0.000000 0
  0.750000   0.062500 0
  1.000000   0.062500 0
  0.812500   0.375000 0
  0.812500   0.437500 0
CELLS 256 1280
4 169 170 148 68
4 151 166 56 167
4 195 45 196 167
4 54 170 201 202
4 109 34 30 147
4 40 32 81 112
4 192 89 86 68
4 48 91 78 202
4 99 64 196 97
4 71 43 37 103
4 74 186 56 95
4 109 164 34 115
4 50 81 158 112
4 122 69 92 70
4 195 145 45 106
4 110 143 174 175
4 157 30 158 147
4 40 69 32 41
4 50 158 148 147
4 141 155 164 115
4 122 123 69 41
4 142 186 143 175
4 60 39 61 42
4 40 51 69 70
4 120 31 123 41
4 157 174 36 175
4 50 148 89 68
4 48 78 155 115
4 52 83 51 70
4 151 56 66 95
4 71 61 43 42
4 169 148 34 147
4 100 193 39 42
4 40 81 51 199
4 110 174 32 112
4 109 30 145 106
4 100 66 193 95
4 169 34 78 115
4 190 92 83 70
4 50 89 81 199
4 54 86 170 68
4 74 56 45 167
4 142 143 43 103
4 153 59 64 97
4 99 196 166 167
4 169 78 170 202
4 142 193 186 95
4 192 128 89 199
4 74 45 36 106
4 110 31 143 103
4 76 184 59 97
4 142 43 193 42
4 52 51 128 199
4 189 201 91 202
4 120 37 31 103
4 74 36 186 175
4 195 196 184 97
4 141 164 140 183
4 157 158 174 112
4 109 145 164 183
4 195 184 145 183
4 110 32 31 41
4 157 36 30 106
4 76 140 184 183
4 171 172 206 181
4 178 172 261 136
4 256 261 255 136
4 256 257 261 245
4 180 150 206 207
4 60 119 39 210
4 118 215 241 263
4 178 205 172 181
4 216 243 238 244
4 162 217 233 232
4 180 206 131 181
4 179 137 119 210
4 216 204 217 232
4 220 237 219 229
4 216 217 243 159
4 259 258 262 224
4 240 254 237 229
4 153 64 227 208
4 161 205 258 224
4 240 237 238 223
4 226 227 233 208
4 234 228 254 229
4 171 248 137 210
4 160 132 204 232
4 180 131 138 159
4 133 251 213 252
4 171 206 248 207
4 162 138 217 159
4 161 258 243 244
4 220 225 237 223
4 151 150 166 212
4 260 247 257 245
4 259 262 214 263
4 151 66 150 207
4 234 254 209 253
4 162 233 250 208
4 242 241 262 263
4 171 137 172 136
4 161 243 131 159
4 160 204 225 223
4 161 131 205 181
4 179 255 137 136
4 216 238 204 223
4 100 39 248 210
4 260 213 247 252
4 226 233 132 232
4 134 214 215 263
4 180 138 150 212
4 178 261 239 245
4 259 246 258 244
4 178 239 205 224
4 240 238 246 244
4 242 262 239 224
4 99 250 64 208
4 240 246 254 253
4 242 239 247 245
4 135 219 228 229
4 99 166 250 212
4 259 214 246 253
4 118 241 251 252
4 100 248 66 207
4 134 209 214 253
4 162 250 138 212
4 242 247 241 252
4 71 187 61 280
4 102 281 197 280
4 122 92 82 203
4 17 18 82 117
4 122 82 123 117
4 19 264 273 265
4 267 279 222 20
4 125 273 270 265
4 267 272 279 176
4 19 116 18 117
4 21 25 286 24
4 23 28 26 20
4 23 285 28 27
4 218 286 275 24
4 85 53 84 288
4 235 236 231 266
4 221 222 28 20
4 267 222 231 230
4 268 38 129 203
4 125 270 197 188
4 126 287 272 176
4 277 270 276 265
4 267 231 272 266
4 125 197 187 280
4 190 129 92 203
4 277 276 287 176
4 19 18 264 22
4 17 82 38 203
4 102 197 90 188
4 126 84 287 288
4 284 130 285 27
4 121 276 264 265
4 71 37 187 177
4 120 123 116 117
4 198 88 127 191
4 221 16 25 24
4 23 26 15 22
4 121 279 276 176
4 235 231 124 230
4 125 187 273 177
4 278 271 236 266
4 277 287 283 288
4 284 285 274 282
4 278 127 271 191
4 269 275 16 24
4 200 283 53 288
4 23 15 285 282
4 121 26 279 20
4 21 124 25 230
4 19 273 116 177
4 200 90 283 188
4 126 271 84 191
4 269 16 130 27
4 17 38 15 282
4 221 25 222 230
4 121 264 26 22
4 120 116 37 177
4 60 61 281 280
4 277 283 270 188
4 126 272 271 266
4 268 274 38 282
4 85 84 88 191
4 17 15 18 22
4 221 28 16 27
4 93 94 73 55
4 85 88 67 87
4 80 49 79 87
4 44 104 73 72
4 146 33 67 168
4 211 165 149 55
4 8 47 14 154
4 105 104 108 144
4 105 108 29 107
4 7 139 13 75
4 44 165 194 98
4 200 53 77 168
4 8 1 101 4
4 2 5 152 58
4 260 6 213 3
4 105 35 104 72
4 96 57 182 75
4 7 14 139 154
4 146 29 33 107
4 7 13 10 9
4 12 13 57 75
4 85 67 53 168
4 44 73 165 55
4 63 152 62 58
4 8 101 47 46
4 96 182 194 144
4 60 281 119 4
4 12 5 6 3
4 173 185 35 72
4 65 149 94 55
4 146 67 49 87
4 114 113 47 154
4 163 108 182 144
4 12 6 13 9
4 173 35 111 156
4 163 182 139 75
4 260 257 6 9
4 105 29 35 156
4 163 139 113 154
4 256 10 257 9
4 146 49 29 156
4 163 113 108 107
4 80 111 49 156
4 102 101 281 4
4 12 57 5 58
4 44 194 104 144
4 96 194 62 98
4 2 0 5 3
4 93 73 185 72
4 179 119 1 4
4 200 77 90 46
4 114 33 113 107
4 7 10 14 11
4 96 62 57 58
4 133 213 0 3
4 102 90 101 46
4 256 255 10 11
4 63 62 249 98
4 114 47 77 46
4 179 1 255 11
4 211 249 165 98
4 114 77 33 168
4 198 79 88 87
4 8 14 1 11
CELL_TYPES 256
8
8
8
8
8
8
8
8
8
8
8
8
8
8
8
8
8
8
8
8
8
8
8
8
8
8
8
8
8
8
8
8
8
8
8
8
8
8
8
8
8
8
8
8
8
8
8
8
8
8
8
8
8
8
8
8
8
8
8
8
8
8
8
8
8
8
8
8
8
8
8
8
8
8
8
8
8
8
8
8
8
8
8
8
8
8
8
8
8
8
8
8
8
8
8
8
8
8
8
8
8
8
8
8
8
8
8
8
8
8
8
8
8
8
8
8
8
8
8
8
8
8
8
8
8
8
8
8
8
8
8
8
8
8
8
8
8
8
8
8
8
8
8
8
8
8
8
8
8
8
8
8
8
8
8
8
8
8
8
8
8
8
8
8
8
8
8
8
8
8
8
8
8
8
8
8
8
8
8
8
8
8
8
8
8
8
8
8
8
8
8
8
8
8
8
8
8
8
8
8
8
8
8
8
8
8
8
8
8
8
8
8
8
8
8
8
8
8
8
8
8
8
8
8
8
8
8
8
8
8
8
8
8
8
8
8
8
8
8
8
8
8
8
8
8
8
8
8
8
8
8
8
8
8
8
8
CELL_DATA 256
VECTORS vector_value float
0.0382452 -0.248764 0
-0.636451 -1.54043 0
-0.455732 -1.05084 0
0.205459 -2.35522 0
-1.8608 -1.55849 0
0.331879 -1.27211 0
0.0684789 -0.227462 0
-0.159895 -5.93424 0
-0.0770298 -1.01258 0
-0.353236 -0.471107 0
-1.29393 -3.4215 0
-2.66203 -3.93798 0
0.168311 -0.470794 0
-0.057078 -0.311936 0
-0.818408 -1.75019 0
-0.222104 -1.17044 0
-0.606472 -0.781155 0
0.314949 -1.51891 0
0.0648581 -0.235046 0
-0.9676 -2.19122 0
-0.0939451 -0.380748 0
-0.858936 -1.44767 0
-0.66215 -1.45647 0
0.0372476 -1.85403 0
-0.0631495 -0.41041 0
-0.752379 -1.85761 0
0.105209 -0.293069 0
-0.912926 -4.29113 0
0.0511481 -2.18751 0
-0.631448 -2.48072 0
-0.504219 -0.694257 0
-0.198119 -0.677206 0
-1.57214 -1.53778 0
0.2364 -1.32779 0
0.456297 -1.59347 0
-2.76049 -2.46337 0
-1.51459 -2.03988 0
-1.27623 -3.23231 0
-0.0405377 -0.225013 0
0.128897 -0.272926 0
0.0618744 -0.286048 0
-0.747865 -1.49703 0
-0.491016 -0.772673 0
0.0605499 -0.310189 0
-0.566034 -0.626478 0
0.0327917 -1.85781 0
-1.36168 -2.04368 0
0.0760706 -0.34 0
-1.59525 -2.01446 0
-0.249238 -0.791281 0
-0.0178836 -0.272509 0
-0.824497 -0.999095 0
0.0933966 -1.16605 0
0.111333 -5.332 0
-0.133639 -0.31884 0
-1.7503 -3.36969 0
-0.156772 -1.31353 0
-0.394662 -1.09508 0
0.156033 -0.876351 0
-1.40657 -2.18075 0
-0.347792 -1.31103 0
0.0485358 -0.638612 0
-2.37468 -2.01288 0
-0.167471 -0.544964 0
-1.03143 -3.94833 0
-0.872838 -4.34185 0
-0.100378 -1.23422 0
-1.31938 -2.34788 0
-0.972665 -3.03502 0
-0.274105 -3.16324 0
0.365828 -1.08192 0
-1.02694 -4.36219 0
0.0976808 -0.254944 0
-0.122171 -0.190573 0
-1.20828 -1.73175 0
0.931078 -4.04788 0
-0.0343084 -0.153658 0
0.0676975 -0.50465 0
-0.0110372 -0.274372 0
0.473359 -0.987996 0
0.169364 -0.306841 0
0.0778857 -0.542905 0
0.0880064 -0.556284 0
0.154781 -0.297488 0
-0.0678186 -0.521082 0
0.72583 -0.650487 0
0.323456 -1.42883 0
-0.0268448 -0.311348 0
-0.351605 -0.529649 0
-0.877807 -1.31934 0
-0.315905 -1.62143 0
-0.134589 -0.199472 0
0.0838965 -0.290711 0
0.0817462 -0.370189 0
-0.704285 -1.49463 0
-0.782434 -2.15937 0
1.40686 -1.82572 0
-0.599935 -2.86907 0
1.35028 -0.643237 0
-0.135861 -0.217965 0
1.19999 -1.84724 0
1.12537 -3.02564 0
-0.00424069 -0.224053 0
0.00508793 -0.260643 0
-0.328593 -0.963738 0
0.431067 -2.04481 0
0.0674537 -0.267018 0
-0.902605 -1.84461 0
-0.613646 -1.39722 0
-0.0408153 -0.378636 0
1.18195 -1.82866 0
-0.414614 -0.893403 0
-1.06815 -4.14723 0
0.136444 -0.335552 0
-0.200485 -3.376 0
0.120253 -0.179171 0
0.587158 -2.64805 0
-0.112284 -0.443127 0
0.316223 -0.25783 0
-0.0599911 -3.43179 0
0.204169 -0.746674 0
-0.298373 -0.282093 0
0.781303 -0.678189 0
-0.195394 -1.41089 0
-0.347077 -0.830296 0
1.61969 -0.981255 0
-0.2009 -0.232697 0
0.0431534 -2.69309 0
-0.187733 -1.00746 0
0.0246883 -0.409482 0
-0.0189052 -0.0539052 0
0.0596671 -0.155191 0
-0.0130241 -0.0660885 0
0.0195442 -0.0876776 0
-0.00145849 -0.134107 0
0.0284068 -0.0683564 0
0.0727429 -0.162443 0
0.089655 -0.23928 0
-0.114932 -1.9009 0
-0.0742004 -0.155752 0
-0.146993 -0.30321 0
-0.032082 -1.72006 0
0.574886 -0.86692 0
0.393004 -2.34105 0
-0.207151 -0.257197 0
-0.0413954 -0.459371 0
-0.00162736 -0.0694193 0
0.0503974 -0.0855305 0
0.228892 -0.237421 0
0.04456 -0.0815392 0
0.267838 -0.537578 0
0.0395575 -0.362971 0
-0.011523 -0.0533246 0
0.129146 -0.308507 0
0.109498 -0.242852 0
0.00289534 -0.100991 0
0.123533 -0.196951 0
0.524492 -0.596032 0
-0.0488085 -0.411963 0
0.00455981 -0.0626202 0
-0.0957519 -0.560291 0
-0.0444927 -0.201454 0
0.0665254 -0.316784 0
-0.205046 -0.574119 0
0.0126358 -0.220824 0
0.0198598 -0.215069 0
-0.0700413 -2.46448 0
0.0409546 -0.384428 0
0.403305 -1.43833 0
0.262268 -0.403474 0
-0.0104075 -0.42242 0
0.237511 -0.672142 0
-0.0611226 -0.639872 0
0.376206 -0.497619 0
0.00482427 -0.35998 0
-0.0221907 -0.162911 0
-0.167552 -2.18179 0
0.0530068 -0.404611 0
0.278342 -0.298446 0
0.608876 -1.41994 0
-0.0489815 -0.298839 0
0.0387219 -0.266617 0
-0.335338 -0.573214 0
-0.0134976 -0.107865 0
-0.0423228 -0.298706 0
0.0471756 -1.29838 0
0.130976 -0.160008 0
0.704276 -1.23935 0
0.00494026 -0.264801 0
0.423869 -1.11089 0
0.101053 -0.311691 0
-0.220219 -0.33971 0
-0.036077 -0.498335 0
0.10811 -0.66351 0
0.0145372 -0.262382 0
-0.0888076 -0.710786 0
0.133666 -0.689289 0
-0.627021 -0.88532 0
0.0507099 -0.405558 0
-0.118888 -0.655846 0
-0.120887 -0.795048 0
-0.231531 -0.428578 0
-0.327481 -0.957717 0
0.344757 -0.661156 0
-0.000631919 -0.237752 0
-0.705644 -0.681427 0
-0.714692 -0.988922 0
-0.14268 -0.71689 0
-0.488549 -0.637276 0
0.00672478 -0.356511 0
-0.0226262 -0.582969 0
-0.481445 -0.593974 0
-0.836597 -0.613709 0
0.332812 -0.89345 0
-0.0712708 -0.617398 0
-0.504671 -1.02209 0
0.00271481 -0.319225 0
-0.15696 -1.04751 0
0.367718 -0.891938 0
-0.600531 -0.681411 0
-0.0121376 -0.283789 0
-0.230812 -0.649967 0
0.0354726 -0.54029 0
-0.0030677 -0.714104 0
-0.11904 -0.868408 0
-0.973415 -0.679809 0
-0.0132058 -0.302635 0
-0.139603 -0.377929 0
-1.20914 -0.940614 0
-0.0402324 -0.473583 0
-0.0979355 -0.591566 0
-0.586773 -0.573877 0
-0.00572311 -0.585954 0
-0.13955 -0.72242 0
-0.015555 -0.230448 0
0.054863 -0.334441 0
-0.656773 -0.643276 0
-0.0562807 -0.526981 0
-0.678262 -1.27874 0
-0.997525 -0.874208 0
-0.0740892 -0.433712 0
0.100307 -0.463129 0
0.181648 -0.414116 0
-0.0762515 -0.789415 0
-0.0233209 -0.346265 0
-0.704282 -0.823421 0
-1.04269 -0.890238 0
0.0206752 -0.405323 0
-0.155972 -0.546539 0
-0.532283 -1.14255 0
0.0846736 -0.753584 0
-0.0400719 -0.389788 0
-0.742335 -1.19175 0
0.218917 -0.736044 0
0.00628159 -0.266091 0
0.00559709 -0.252904 0
