# vtk DataFile Version 2.0
Unstructured Grid by M++
ASCII
DATASET UNSTRUCTURED_GRID
POINTS 81 float
  1.000000   0.625000 0
  0.750000   0.375000 0
  1.000000   0.000000 0
  0.875000   0.875000 0
  0.750000   0.125000 0
  1.000000   1.000000 0
  0.875000   0.250000 0
  0.625000   0.875000 0
  1.000000   0.750000 0
  0.875000   0.000000 0
  1.000000   0.250000 0
  0.625000   0.375000 0
  0.875000   0.500000 0
  0.625000   0.625000 0
  1.000000   0.500000 0
  0.750000   0.500000 0
  0.750000   1.000000 0
  1.000000   0.125000 0
  0.625000   0.250000 0
  0.750000   0.750000 0
  0.625000   0.000000 0
  0.125000   0.375000 0
  0.000000   0.500000 0
  0.125000   0.625000 0
  0.625000   1.000000 0
  1.000000   0.875000 0
  0.875000   0.125000 0
  0.500000   0.250000 0
  0.625000   0.500000 0
  0.250000   0.625000 0
  0.000000   0.625000 0
  0.375000   0.500000 0
  0.375000   0.000000 0
  0.000000   0.125000 0
  0.125000   0.875000 0
  0.875000   1.000000 0
  0.750000   0.250000 0
  0.375000   0.375000 0
  0.250000   0.375000 0
  0.625000   0.750000 0
  0.125000   0.125000 0
  0.500000   0.000000 0
  0.250000   0.875000 0
  0.125000   0.500000 0
  0.500000   0.375000 0
  0.125000   0.000000 0
  0.250000   0.750000 0
  0.250000   0.500000 0
  0.000000   0.875000 0
  0.875000   0.625000 0
  0.500000   0.750000 0
  0.750000   0.625000 0
  0.250000   0.000000 0
  0.375000   0.750000 0
  0.750000   0.875000 0
  0.625000   0.125000 0
  0.250000   0.250000 0
  0.375000   1.000000 0
  0.375000   0.250000 0
  0.000000   0.375000 0
  0.500000   1.000000 0
  0.875000   0.750000 0
  0.750000   0.000000 0
  0.375000   0.125000 0
  0.500000   0.875000 0
  0.000000   0.000000 0
  0.125000   0.750000 0
  0.500000   0.625000 0
  0.125000   0.250000 0
  0.500000   0.125000 0
  0.250000   1.000000 0
  0.250000   0.125000 0
  0.000000   1.000000 0
  0.375000   0.875000 0
  0.000000   0.750000 0
  0.375000   0.625000 0
  0.000000   0.250000 0
  0.125000   1.000000 0
  1.000000   0.375000 0
  0.500000   0.500000 0
  0.875000   0.375000 0
CELLS 64 320
4 56 71 58 63
4 27 58 69 63
4 41 69 32 63
4 76 33 68 40
4 27 44 58 37
4 79 31 44 37
4 56 38 68 21
4 56 58 38 37
4 52 32 71 63
4 47 38 31 37
4 76 68 59 21
4 22 59 43 21
4 65 45 33 40
4 47 43 38 21
4 52 71 45 40
4 56 68 71 40
4 74 30 66 23
4 46 66 29 23
4 22 43 30 23
4 72 48 77 34
4 46 53 42 73
4 50 64 53 73
4 70 42 57 73
4 74 66 48 34
4 46 42 66 34
4 47 29 43 23
4 70 77 42 34
4 60 57 64 73
4 79 67 31 75
4 47 31 29 75
4 50 53 67 75
4 46 29 53 75
4 10 78 6 80
4 36 6 1 80
4 15 1 12 80
4 36 4 6 26
4 14 12 78 80
4 2 17 9 26
4 36 18 4 55
4 15 28 1 11
4 62 4 20 55
4 10 6 17 26
4 27 18 44 11
4 62 9 4 26
4 27 69 18 55
4 36 1 18 11
4 41 20 69 55
4 79 44 28 11
4 16 24 54 7
4 19 54 39 7
4 50 39 64 7
4 8 25 61 3
4 60 64 24 7
4 79 28 67 13
4 19 51 61 49
4 8 61 0 49
4 15 51 28 13
4 19 39 51 13
4 50 67 39 13
4 19 61 54 3
4 14 0 12 49
4 5 35 25 3
4 15 12 51 49
4 16 54 35 3
CELL_TYPES 64
8
8
8
8
8
8
8
8
8
8
8
8
8
8
8
8
8
8
8
8
8
8
8
8
8
8
8
8
8
8
8
8
8
8
8
8
8
8
8
8
8
8
8
8
8
8
8
8
8
8
8
8
8
8
8
8
8
8
8
8
8
8
8
8
CELL_DATA 64
VECTORS vector_value float
-1.21662 -1.37599 0
-0.277438 -0.0615641 0
-0.0486604 -0.105152 0
-1.50564 -2.69678 0
-0.639333 -0.209786 0
-0.324201 -0.340604 0
-1.03925 -2.09708 0
-1.26445 -3.16606 0
-0.0796577 -0.527134 0
-0.602313 -3.86437 0
-0.28168 -0.79726 0
-0.103799 -0.321143 0
-0.285995 -4.46569 0
-0.460318 -1.39068 0
-0.270007 -1.79841 0
-2.8325 -2.55595 0
0.0873298 -0.396421 0
0.104555 -0.483663 0
0.0423344 -0.195025 0
0.0977965 -1.05729 0
-0.0228379 -1.8644 0
-0.207445 -2.29322 0
0.332505 -0.812711 0
0.169144 -0.650236 0
0.488127 -0.636982 0
-0.183054 -0.977383 0
0.282553 -0.7379 0
-0.617788 -2.03961 0
-0.602577 -0.567351 0
-1.01294 -3.78729 0
-0.634476 -1.89575 0
-0.17463 -2.5923 0
0.01655 -0.384607 0
-0.278747 -0.718483 0
-0.418815 -1.19708 0
-0.0487038 -0.216206 0
-0.158852 -0.434657 0
0.00143515 -0.454736 0
-0.400859 -0.520354 0
-0.245939 -0.316701 0
-0.0113139 -0.217161 0
0.0192914 -0.434049 0
-0.396159 -0.0696036 0
-0.00126728 -0.137797 0
-0.500973 -0.139101 0
-0.533282 -0.557115 0
-0.0599237 -0.293922 0
-0.178409 -0.134764 0
-0.251584 -0.254116 0
-0.0308361 -0.0980001 0
-0.0311895 -0.271754 0
0.018354 -1.75295 0
-1.05353 -0.881979 0
-0.272821 -0.428712 0
-0.348619 -0.533618 0
-0.31093 -1.47416 0
-0.129169 -0.227728 0
-0.19779 -0.186125 0
-0.060331 -0.437962 0
-0.0327689 -0.43246 0
-0.182328 -0.880262 0
0.324087 -1.39491 0
-0.300178 -0.936249 0
0.452522 -0.82149 0
