# vtk DataFile Version 2.0
Unstructured Grid by M++
ASCII
DATASET UNSTRUCTURED_GRID
POINTS 81 float
  1.000000   0.625000 0
  0.750000   0.375000 0
  1.000000   0.000000 0
  0.875000   0.875000 0
  0.750000   0.125000 0
  1.000000   1.000000 0
  0.875000   0.250000 0
  0.625000   0.875000 0
  1.000000   0.750000 0
  0.875000   0.000000 0
  1.000000   0.250000 0
  0.625000   0.375000 0
  0.875000   0.500000 0
  0.625000   0.625000 0
  1.000000   0.500000 0
  0.750000   0.500000 0
  0.750000   1.000000 0
  1.000000   0.125000 0
  0.625000   0.250000 0
  0.750000   0.750000 0
  0.625000   0.000000 0
  0.125000   0.375000 0
  0.000000   0.500000 0
  0.125000   0.625000 0
  0.625000   1.000000 0
  1.000000   0.875000 0
  0.875000   0.125000 0
  0.500000   0.250000 0
  0.625000   0.500000 0
  0.250000   0.625000 0
  0.000000   0.625000 0
  0.375000   0.500000 0
  0.375000   0.000000 0
  0.000000   0.125000 0
  0.125000   0.875000 0
  0.875000   1.000000 0
  0.750000   0.250000 0
  0.375000   0.375000 0
  0.250000   0.375000 0
  0.625000   0.750000 0
  0.125000   0.125000 0
  0.500000   0.000000 0
  0.250000   0.875000 0
  0.125000   0.500000 0
  0.500000   0.375000 0
  0.125000   0.000000 0
  0.250000   0.750000 0
  0.250000   0.500000 0
  0.000000   0.875000 0
  0.875000   0.625000 0
  0.500000   0.750000 0
  0.750000   0.625000 0
  0.250000   0.000000 0
  0.375000   0.750000 0
  0.750000   0.875000 0
  0.625000   0.125000 0
  0.250000   0.250000 0
  0.375000   1.000000 0
  0.375000   0.250000 0
  0.000000   0.375000 0
  0.500000   1.000000 0
  0.875000   0.750000 0
  0.750000   0.000000 0
  0.375000   0.125000 0
  0.500000   0.875000 0
  0.000000   0.000000 0
  0.125000   0.750000 0
  0.500000   0.625000 0
  0.125000   0.250000 0
  0.500000   0.125000 0
  0.250000   1.000000 0
  0.250000   0.125000 0
  0.000000   1.000000 0
  0.375000   0.875000 0
  0.000000   0.750000 0
  0.375000   0.625000 0
  0.000000   0.250000 0
  0.125000   1.000000 0
  1.000000   0.375000 0
  0.500000   0.500000 0
  0.875000   0.375000 0
CELLS 64 320
4 56 71 58 63
4 27 58 69 63
4 41 69 32 63
4 76 33 68 40
4 27 44 58 37
4 79 31 44 37
4 56 38 68 21
4 56 58 38 37
4 52 32 71 63
4 47 38 31 37
4 76 68 59 21
4 22 59 43 21
4 65 45 33 40
4 47 43 38 21
4 52 71 45 40
4 56 68 71 40
4 74 30 66 23
4 46 66 29 23
4 22 43 30 23
4 72 48 77 34
4 46 53 42 73
4 50 64 53 73
4 70 42 57 73
4 74 66 48 34
4 46 42 66 34
4 47 29 43 23
4 70 77 42 34
4 60 57 64 73
4 79 67 31 75
4 47 31 29 75
4 50 53 67 75
4 46 29 53 75
4 10 78 6 80
4 36 6 1 80
4 15 1 12 80
4 36 4 6 26
4 14 12 78 80
4 2 17 9 26
4 36 18 4 55
4 15 28 1 11
4 62 4 20 55
4 10 6 17 26
4 27 18 44 11
4 62 9 4 26
4 27 69 18 55
4 36 1 18 11
4 41 20 69 55
4 79 44 28 11
4 16 24 54 7
4 19 54 39 7
4 50 39 64 7
4 8 25 61 3
4 60 64 24 7
4 79 28 67 13
4 19 51 61 49
4 8 61 0 49
4 15 51 28 13
4 19 39 51 13
4 50 67 39 13
4 19 61 54 3
4 14 0 12 49
4 5 35 25 3
4 15 12 51 49
4 16 54 35 3
CELL_TYPES 64
8
8
8
8
8
8
8
8
8
8
8
8
8
8
8
8
8
8
8
8
8
8
8
8
8
8
8
8
8
8
8
8
8
8
8
8
8
8
8
8
8
8
8
8
8
8
8
8
8
8
8
8
8
8
8
8
8
8
8
8
8
8
8
8
CELL_DATA 64
VECTORS vector_value float
0.0680215 -0.294202 0
-0.0464579 -0.0420433 0
-0.0122719 -0.0289504 0
0.0795321 -1.2879 0
-0.157434 -0.0413762 0
-0.240219 -0.0291917 0
-0.588 -4.75192 0
-0.248048 -0.252092 0
0.149895 -0.77195 0
-0.264366 -0.485646 0
-0.24523 -0.705321 0
0.0451137 -0.460902 0
0.0193798 -0.754284 0
-0.00910108 -4.55968 0
0.0939323 -4.31614 0
0.360906 -4.23139 0
0.228862 -0.964094 0
-0.30259 -2.42037 0
0.140108 -0.733468 0
-0.358669 -1.57635 0
-0.495786 -0.547718 0
-1.10245 -1.70034 0
0.11688 -0.639563 0
0.216991 -1.74018 0
-0.28491 -0.716996 0
-0.307628 -3.96361 0
-0.359306 -0.424265 0
-0.0073298 -1.48209 0
-0.120139 -0.0227136 0
-0.320388 -0.629791 0
-0.672585 -0.318419 0
-1.93762 -1.44154 0
-0.127686 -0.60573 0
-0.0249233 -0.544555 0
-0.272187 -0.679017 0
0.0670186 -1.30821 0
-0.0526432 -0.692177 0
-0.040357 -0.188634 0
0.103798 -0.509889 0
-0.389306 -0.869307 0
0.0827973 -0.369066 0
-0.0727971 -0.286266 0
-0.0815428 -0.177015 0
0.024319 -1.56832 0
-0.000494275 -0.0400918 0
0.121142 -0.921988 0
0.00119758 -0.00265638 0
-0.370867 -0.224081 0
-0.217697 -1.12563 0
0.103616 -0.976838 0
-0.336126 -0.40188 0
0.205434 -1.11387 0
-0.281619 -1.02488 0
-0.117551 -0.0502593 0
-0.0505326 -0.605626 0
-0.0245064 -1.31385 0
-0.234213 -0.788332 0
-0.114847 -0.829905 0
-0.185447 -0.106197 0
0.328961 -0.802184 0
-0.223775 -1.06278 0
-0.0760785 -0.867719 0
-0.371293 -0.749046 0
-0.224514 -0.859502 0
