# vtk DataFile Version 2.0
Unstructured Grid by M++
ASCII
DATASET UNSTRUCTURED_GRID
POINTS 81 float
  1.000000   0.625000 0
  0.750000   0.375000 0
  1.000000   0.000000 0
  0.875000   0.875000 0
  0.750000   0.125000 0
  1.000000   1.000000 0
  0.875000   0.250000 0
  0.625000   0.875000 0
  1.000000   0.750000 0
  0.875000   0.000000 0
  1.000000   0.250000 0
  0.625000   0.375000 0
  0.875000   0.500000 0
  0.625000   0.625000 0
  1.000000   0.500000 0
  0.750000   0.500000 0
  0.750000   1.000000 0
  1.000000   0.125000 0
  0.625000   0.250000 0
  0.750000   0.750000 0
  0.625000   0.000000 0
  0.125000   0.375000 0
  0.000000   0.500000 0
  0.125000   0.625000 0
  0.625000   1.000000 0
  1.000000   0.875000 0
  0.875000   0.125000 0
  0.500000   0.250000 0
  0.625000   0.500000 0
  0.250000   0.625000 0
  0.000000   0.625000 0
  0.375000   0.500000 0
  0.375000   0.000000 0
  0.000000   0.125000 0
  0.125000   0.875000 0
  0.875000   1.000000 0
  0.750000   0.250000 0
  0.375000   0.375000 0
  0.250000   0.375000 0
  0.625000   0.750000 0
  0.125000   0.125000 0
  0.500000   0.000000 0
  0.250000   0.875000 0
  0.125000   0.500000 0
  0.500000   0.375000 0
  0.125000   0.000000 0
  0.250000   0.750000 0
  0.250000   0.500000 0
  0.000000   0.875000 0
  0.875000   0.625000 0
  0.500000   0.750000 0
  0.750000   0.625000 0
  0.250000   0.000000 0
  0.375000   0.750000 0
  0.750000   0.875000 0
  0.625000   0.125000 0
  0.250000   0.250000 0
  0.375000   1.000000 0
  0.375000   0.250000 0
  0.000000   0.375000 0
  0.500000   1.000000 0
  0.875000   0.750000 0
  0.750000   0.000000 0
  0.375000   0.125000 0
  0.500000   0.875000 0
  0.000000   0.000000 0
  0.125000   0.750000 0
  0.500000   0.625000 0
  0.125000   0.250000 0
  0.500000   0.125000 0
  0.250000   1.000000 0
  0.250000   0.125000 0
  0.000000   1.000000 0
  0.375000   0.875000 0
  0.000000   0.750000 0
  0.375000   0.625000 0
  0.000000   0.250000 0
  0.125000   1.000000 0
  1.000000   0.375000 0
  0.500000   0.500000 0
  0.875000   0.375000 0
CELLS 64 320
4 56 71 58 63
4 27 58 69 63
4 41 69 32 63
4 76 33 68 40
4 27 44 58 37
4 79 31 44 37
4 56 38 68 21
4 56 58 38 37
4 52 32 71 63
4 47 38 31 37
4 76 68 59 21
4 22 59 43 21
4 65 45 33 40
4 47 43 38 21
4 52 71 45 40
4 56 68 71 40
4 74 30 66 23
4 46 66 29 23
4 22 43 30 23
4 72 48 77 34
4 46 53 42 73
4 50 64 53 73
4 70 42 57 73
4 74 66 48 34
4 46 42 66 34
4 47 29 43 23
4 70 77 42 34
4 60 57 64 73
4 79 67 31 75
4 47 31 29 75
4 50 53 67 75
4 46 29 53 75
4 10 78 6 80
4 36 6 1 80
4 15 1 12 80
4 36 4 6 26
4 14 12 78 80
4 2 17 9 26
4 36 18 4 55
4 15 28 1 11
4 62 4 20 55
4 10 6 17 26
4 27 18 44 11
4 62 9 4 26
4 27 69 18 55
4 36 1 18 11
4 41 20 69 55
4 79 44 28 11
4 16 24 54 7
4 19 54 39 7
4 50 39 64 7
4 8 25 61 3
4 60 64 24 7
4 79 28 67 13
4 19 51 61 49
4 8 61 0 49
4 15 51 28 13
4 19 39 51 13
4 50 67 39 13
4 19 61 54 3
4 14 0 12 49
4 5 35 25 3
4 15 12 51 49
4 16 54 35 3
CELL_TYPES 64
8
8
8
8
8
8
8
8
8
8
8
8
8
8
8
8
8
8
8
8
8
8
8
8
8
8
8
8
8
8
8
8
8
8
8
8
8
8
8
8
8
8
8
8
8
8
8
8
8
8
8
8
8
8
8
8
8
8
8
8
8
8
8
8
CELL_DATA 64
VECTORS vector_value float
0.610397 -0.602517 0
0.112533 -0.128534 0
0.49718 -0.637301 0
-0.248084 -2.07893 0
0.219441 -0.106147 0
0.206968 -0.242634 0
0.0439477 -1.76448 0
0.28557 -0.291347 0
0.0370537 -0.127332 0
0.0914779 -0.354014 0
-0.139965 -1.53145 0
0.168417 -1.68309 0
-0.0101467 -2.37093 0
0.321986 -1.73036 0
-0.000298144 -0.166325 0
-0.0256552 -0.71224 0
-0.0767332 -1.92471 0
-0.253213 -1.46793 0
0.0580567 -2.34588 0
-0.353944 -1.4706 0
-0.405806 -0.531272 0
-0.189535 -0.485327 0
-0.570881 -0.668905 0
-0.084758 -1.83115 0
-0.34464 -1.16315 0
-0.0182721 -1.08304 0
-0.677998 -0.826422 0
-0.224645 -1.0915 0
0.00823319 -0.245797 0
0.0268592 -0.408924 0
-0.0305499 -0.170605 0
-0.169416 -0.457668 0
-0.0133668 -1.83096 0
-0.0112599 -1.16496 0
-0.162545 -1.22185 0
-0.459517 -1.23495 0
-0.0669858 -1.98061 0
-0.063287 -1.26919 0
0.041913 -0.668007 0
-0.126173 -0.520683 0
-0.514001 -2.07236 0
-0.232402 -1.83127 0
0.184001 -0.682788 0
-0.468444 -0.663688 0
0.0739717 -0.743556 0
-0.0239638 -0.627866 0
0.259189 -0.692869 0
0.0153335 -0.26676 0
1.01022 -0.374497 0
0.0439893 -0.052206 0
0.123279 -0.43452 0
0.376169 -2.98871 0
0.236608 -0.785572 0
-0.0133216 -0.0864974 0
-0.191686 -0.630767 0
-0.378815 -2.88187 0
-0.147782 -0.431461 0
0.0991945 -0.255061 0
0.0158145 -0.21139 0
0.139757 -0.513667 0
-0.152209 -2.04472 0
0.654944 -1.68976 0
-0.438049 -1.35368 0
1.6147 -1.09274 0
