# vtk DataFile Version 2.0
Unstructured Grid by M++
ASCII
DATASET UNSTRUCTURED_GRID
POINTS 1089 float
  0.718750   0.687500 0
  0.750000   0.687500 0
  0.718750   0.656250 0
  0.750000   0.718750 0
  0.625000   0.562500 0
  0.625000   0.593750 0
  0.656250   0.593750 0
  0.750000   0.750000 0
  0.687500   0.656250 0
  0.687500   0.625000 0
  0.656250   0.625000 0
  0.906250   0.593750 0
  1.000000   0.968750 0
  0.750000   0.968750 0
  0.718750   0.968750 0
  0.718750   1.000000 0
  0.750000   1.000000 0
  0.906250   0.906250 0
  0.843750   0.531250 0
  0.656250   0.937500 0
  0.656250   0.906250 0
  0.562500   0.812500 0
  0.562500   0.843750 0
  0.593750   0.875000 0
  0.593750   0.843750 0
  0.812500   0.718750 0
  0.625000   0.625000 0
  0.968750   0.875000 0
  0.531250   0.875000 0
  0.625000   0.937500 0
  0.562500   0.562500 0
  0.906250   0.812500 0
  0.531250   0.781250 0
  0.562500   0.593750 0
  0.906250   0.843750 0
  0.625000   0.656250 0
  0.968750   0.906250 0
  0.687500   0.968750 0
  0.812500   0.812500 0
  0.687500   1.000000 0
  0.687500   0.687500 0
  0.937500   0.843750 0
  0.593750   0.593750 0
  1.000000   0.625000 0
  0.968750   0.593750 0
  0.906250   0.875000 0
  0.968750   0.625000 0
  0.625000   0.875000 0
  0.875000   0.875000 0
  0.625000   0.906250 0
  0.875000   0.843750 0
  0.531250   0.812500 0
  0.968750   0.562500 0
  0.593750   0.625000 0
  0.937500   0.875000 0
  0.656250   0.687500 0
  1.000000   0.937500 0
  0.875000   0.562500 0
  0.687500   0.937500 0
  0.937500   0.625000 0
  0.812500   0.781250 0
  0.937500   0.562500 0
  0.875000   0.781250 0
  0.531250   0.531250 0
  0.718750   0.937500 0
  0.968750   0.937500 0
  0.906250   0.562500 0
  0.843750   0.781250 0
  0.593750   0.562500 0
  1.000000   0.906250 0
  0.656250   0.656250 0
  0.937500   0.906250 0
  0.875000   0.531250 0
  0.812500   0.750000 0
  0.656250   0.968750 0
  0.937500   0.531250 0
  0.843750   0.812500 0
  0.906250   0.531250 0
  0.843750   0.750000 0
  0.937500   0.593750 0
  0.875000   0.812500 0
  0.531250   0.562500 0
  1.000000   0.593750 0
  0.562500   0.906250 0
  0.562500   0.531250 0
  0.593750   0.906250 0
  0.593750   0.937500 0
  0.562500   0.875000 0
  0.781250   0.750000 0
  0.781250   0.781250 0
  0.593750   0.531250 0
  1.000000   0.687500 0
  0.531250   0.843750 0
  0.718750   0.718750 0
  0.781250   0.718750 0
  0.781250   0.687500 0
  1.000000   0.656250 0
  0.968750   0.656250 0
  0.843750   0.843750 0
  0.781250   1.000000 0
  0.656250   0.312500 0
  0.531250   0.250000 0
  0.875000   0.500000 0
  0.531250   0.218750 0
  0.875000   0.468750 0
  0.531250   0.156250 0
  0.593750   0.812500 0
  0.093750   0.562500 0
  0.656250   0.562500 0
  0.156250   0.312500 0
  0.031250   0.812500 0
  0.125000   1.000000 0
  0.312500   0.250000 0
  0.250000   0.500000 0
  0.375000   0.000000 0
  0.187500   0.750000 0
  0.812500   0.906250 0
  0.312500   0.656250 0
  0.250000   0.906250 0
  0.875000   0.656250 0
  0.375000   0.406250 0
  0.750000   0.843750 0
  0.250000   0.593750 0
  0.187500   0.843750 0
  0.812500   0.593750 0
  0.312500   0.343750 0
  0.625000   0.968750 0
  0.125000   0.718750 0
  0.687500   0.718750 0
  0.187500   0.468750 0
  0.062500   0.968750 0
  0.125000   0.656250 0
  0.187500   0.406250 0
  0.250000   0.156250 0
  0.062500   0.906250 0
  0.468750   0.906250 0
  0.656250   0.156250 0
  0.468750   0.812500 0
  0.593750   0.312500 0
  0.656250   0.062500 0
  0.625000   0.812500 0
  0.125000   0.562500 0
  0.687500   0.562500 0
  0.187500   0.312500 0
  0.062500   0.812500 0
  0.562500   0.937500 0
  0.062500   0.687500 0
  0.625000   0.687500 0
  0.125000   0.437500 0
  0.000000   0.937500 0
  0.062500   0.625000 0
  0.187500   0.125000 0
  0.125000   0.375000 0
  0.000000   0.875000 0
  0.406250   0.875000 0
  0.468750   0.625000 0
  0.593750   0.125000 0
  0.812500   0.937500 0
  0.312500   0.687500 0
  0.250000   0.937500 0
  0.875000   0.687500 0
  0.375000   0.437500 0
  0.750000   0.875000 0
  0.250000   0.625000 0
  0.187500   0.875000 0
  0.812500   0.625000 0
  0.312500   0.375000 0
  0.468750   0.781250 0
  0.593750   0.281250 0
  0.656250   0.031250 0
  0.625000   0.781250 0
  0.125000   0.531250 0
  0.062500   0.781250 0
  0.687500   0.531250 0
  0.187500   0.281250 0
  0.500000   0.812500 0
  0.687500   0.062500 0
  0.625000   0.312500 0
  0.656250   0.812500 0
  0.156250   0.562500 0
  0.718750   0.562500 0
  0.218750   0.312500 0
  0.093750   0.812500 0
  0.437500   0.968750 0
  0.625000   0.218750 0
  0.500000   0.781250 0
  0.687500   0.031250 0
  0.625000   0.281250 0
  0.656250   0.781250 0
  0.156250   0.531250 0
  0.718750   0.531250 0
  0.218750   0.281250 0
  0.093750   0.781250 0
  0.062500   0.562500 0
  0.125000   0.312500 0
  0.187500   0.062500 0
  0.000000   0.812500 0
  0.406250   0.812500 0
  0.968750   0.812500 0
  0.468750   0.562500 0
  0.593750   0.062500 0
  0.218750   0.687500 0
  0.156250   0.937500 0
  0.281250   0.437500 0
  0.062500   0.843750 0
  0.687500   0.593750 0
  0.187500   0.343750 0
  0.625000   0.843750 0
  0.125000   0.593750 0
  0.312500   0.843750 0
  0.437500   0.343750 0
  0.500000   0.093750 0
  0.375000   0.593750 0
  0.312500   0.906250 0
  0.937500   0.656250 0
  0.437500   0.406250 0
  0.875000   0.906250 0
  0.375000   0.656250 0
  0.062500   0.875000 0
  0.187500   0.375000 0
  0.250000   0.125000 0
  0.125000   0.625000 0
  0.093750   0.656250 0
  0.031250   0.906250 0
  0.218750   0.156250 0
  0.156250   0.406250 0
  0.593750   0.968750 0
  0.093750   0.718750 0
  0.031250   0.968750 0
  0.656250   0.718750 0
  0.156250   0.468750 0
  0.437500   0.906250 0
  0.625000   0.156250 0
  0.718750   0.812500 0
  0.218750   0.562500 0
  0.781250   0.562500 0
  0.281250   0.312500 0
  0.156250   0.812500 0
  0.062500   0.656250 0
  0.000000   0.906250 0
  0.187500   0.156250 0
  0.125000   0.406250 0
  0.562500   0.968750 0
  0.062500   0.718750 0
  0.000000   0.968750 0
  0.625000   0.718750 0
  0.125000   0.468750 0
  0.406250   0.968750 0
  0.968750   0.968750 0
  0.468750   0.718750 0
  0.531250   0.468750 0
  0.593750   0.218750 0
  0.406250   0.906250 0
  0.468750   0.656250 0
  0.593750   0.156250 0
  0.687500   0.781250 0
  0.187500   0.531250 0
  0.750000   0.531250 0
  0.250000   0.281250 0
  0.125000   0.781250 0
  0.781250   0.906250 0
  0.281250   0.656250 0
  0.218750   0.906250 0
  0.843750   0.656250 0
  0.343750   0.406250 0
  0.750000   0.906250 0
  0.250000   0.656250 0
  0.187500   0.906250 0
  0.812500   0.656250 0
  0.312500   0.406250 0
  0.875000   0.406250 0
  0.375000   0.156250 0
  0.812500   0.968750 0
  0.312500   0.718750 0
  0.250000   0.968750 0
  0.875000   0.718750 0
  0.375000   0.468750 0
  0.781250   0.937500 0
  0.281250   0.687500 0
  0.218750   0.937500 0
  0.843750   0.687500 0
  0.343750   0.437500 0
  0.718750   0.875000 0
  0.218750   0.625000 0
  0.156250   0.875000 0
  0.781250   0.625000 0
  0.281250   0.375000 0
  0.750000   0.937500 0
  0.250000   0.687500 0
  0.187500   0.937500 0
  0.875000   0.437500 0
  0.375000   0.187500 0
  0.812500   0.687500 0
  0.312500   0.437500 0
  0.687500   0.875000 0
  0.187500   0.625000 0
  0.750000   0.625000 0
  0.250000   0.375000 0
  0.125000   0.875000 0
  0.812500   1.000000 0
  0.312500   0.750000 0
  0.250000   1.000000 0
  0.875000   0.750000 0
  0.375000   0.500000 0
  0.562500   1.000000 0
  0.062500   0.750000 0
  0.000000   1.000000 0
  0.625000   0.750000 0
  0.125000   0.500000 0
  0.406250   1.000000 0
  0.968750   1.000000 0
  0.468750   0.750000 0
  0.656250   0.000000 0
  0.531250   0.500000 0
  0.593750   0.250000 0
  0.406250   0.937500 0
  0.468750   0.687500 0
  0.593750   0.187500 0
  0.687500   0.812500 0
  0.187500   0.562500 0
  0.750000   0.562500 0
  0.250000   0.312500 0
  0.125000   0.812500 0
  0.437500   0.843750 0
  0.625000   0.093750 0
  0.093750   0.593750 0
  0.156250   0.343750 0
  0.218750   0.093750 0
  0.031250   0.843750 0
  0.281250   0.937500 0
  0.843750   0.937500 0
  0.343750   0.687500 0
  0.906250   0.687500 0
  0.406250   0.437500 0
  0.156250   0.968750 0
  0.218750   0.718750 0
  0.281250   0.468750 0
  0.343750   0.218750 0
  0.156250   1.000000 0
  0.406250   0.000000 0
  0.281250   0.500000 0
  0.343750   0.250000 0
  0.218750   0.750000 0
  0.187500   0.968750 0
  0.250000   0.718750 0
  0.375000   0.218750 0
  0.312500   0.468750 0
  0.187500   1.000000 0
  0.312500   0.500000 0
  0.375000   0.250000 0
  0.437500   0.000000 0
  0.250000   0.750000 0
  0.031250   0.781250 0
  0.656250   0.531250 0
  0.156250   0.281250 0
  0.593750   0.781250 0
  0.093750   0.531250 0
  0.000000   0.781250 0
  0.625000   0.531250 0
  0.125000   0.281250 0
  0.562500   0.781250 0
  0.062500   0.531250 0
  0.781250   0.968750 0
  0.281250   0.718750 0
  0.218750   0.968750 0
  0.843750   0.718750 0
  0.343750   0.468750 0
  0.281250   0.968750 0
  0.843750   0.968750 0
  0.343750   0.718750 0
  0.906250   0.718750 0
  0.406250   0.468750 0
  0.281250   1.000000 0
  0.906250   0.750000 0
  0.406250   0.500000 0
  0.843750   1.000000 0
  0.343750   0.750000 0
  0.531250   0.000000 0
  0.718750   0.843750 0
  0.218750   0.593750 0
  0.156250   0.843750 0
  0.781250   0.593750 0
  0.281250   0.343750 0
  0.687500   0.843750 0
  0.187500   0.593750 0
  0.750000   0.593750 0
  0.250000   0.343750 0
  0.125000   0.843750 0
  0.218750   0.875000 0
  0.843750   0.625000 0
  0.343750   0.375000 0
  0.781250   0.875000 0
  0.281250   0.625000 0
  0.156250   0.906250 0
  0.781250   0.656250 0
  0.281250   0.406250 0
  0.718750   0.906250 0
  0.218750   0.656250 0
  0.031250   1.000000 0
  0.656250   0.750000 0
  0.156250   0.500000 0
  0.593750   1.000000 0
  0.093750   0.750000 0
  0.218750   1.000000 0
  0.343750   0.500000 0
  0.468750   0.000000 0
  0.406250   0.250000 0
  0.281250   0.750000 0
  0.593750   0.406250 0
  0.093750   0.156250 0
  0.531250   0.656250 0
  0.031250   0.406250 0
[...]
CELL_DATA 1024
VECTORS vector_value float
0.907703 -1.41281 0
0.684467 -1.35636 0
0.811839 -1.72061 0
0.0374995 -0.185531 0
0.0537665 -0.217182 0
0.115751 -0.544902 0
-0.0135493 -1.77938 0
-0.134169 -0.634673 0
-0.0885005 -0.726668 0
0.066063 -1.52554 0
-0.0912711 -1.35212 0
-0.00429248 -0.139551 0
-0.0214333 -0.19729 0
-0.000810338 -0.304534 0
-0.0769006 -0.311962 0
-0.0854746 -0.405467 0
-0.0145618 -0.161482 0
-0.0240348 -0.248369 0
-0.0305351 -0.726987 0
-0.0147855 -0.674057 0
-0.00295874 -0.732104 0
0.0317319 -0.6374 0
-0.0928638 -1.58661 0
0.0143769 -1.52526 0
0.305247 -1.13225 0
0.36633 -1.32166 0
0.647994 -1.90156 0
0.551843 -1.62979 0
0.067085 -0.488961 0
0.0264717 -0.157243 0
0.0355794 -1.80457 0
0.034144 -1.89323 0
0.132651 -1.6289 0
0.071064 -1.59927 0
0.0144853 -0.162591 0
0.0384563 -0.31201 0
-0.0291402 -0.281203 0
0.0113607 -0.307852 0
0.00551521 -0.145747 0
0.0920116 -0.122827 0
0.110359 -2.00336 0
-0.389906 -1.87117 0
0.544511 -1.38552 0
-0.420189 -2.11926 0
-0.378915 -1.84702 0
0.0372659 -0.292926 0
0.0474688 -0.117378 0
0.00335877 -1.5611 0
0.0968919 -0.36129 0
0.226908 -0.352408 0
-0.567476 -1.89225 0
0.138613 -0.963625 0
0.472548 -1.05369 0
0.0389552 -0.096852 0
0.257336 -0.726624 0
0.0590518 -0.138304 0
0.0927151 -0.238626 0
-0.669456 -2.1084 0
0.177598 -1.99214 0
-0.0335595 -0.995829 0
0.188544 -1.95041 0
0.311274 -1.85852 0
0.161403 -1.14145 0
0.349173 -1.68989 0
0.168069 -2.12715 0
0.194462 -1.02425 0
0.00707794 -0.94976 0
-0.0503422 -2.49923 0
-0.207962 -1.47715 0
0.0330852 -0.209886 0
0.042348 -0.111822 0
0.154229 -0.238793 0
0.128393 -1.17777 0
0.216774 -2.05449 0
0.200551 -0.784107 0
0.0865105 -0.525197 0
0.0885617 -0.372234 0
0.00163369 -0.0818844 0
0.357875 -1.37244 0
0.160042 -1.96775 0
0.0614634 -0.794682 0
0.432237 -1.23353 0
0.892812 -1.95196 0
0.270159 -1.47047 0
0.19379 -1.29876 0
0.539693 -2.16602 0
0.667379 -1.32441 0
0.0251865 -0.911119 0
0.272351 -1.4149 0
0.102711 -0.187944 0
0.263769 -0.431022 0
0.264499 -1.43887 0
0.0889908 -1.3359 0
0.879291 -2.90782 0
0.952763 -1.54665 0
0.379964 -1.23117 0
0.413442 -1.90814 0
0.688808 -2.07364 0
0.848559 -1.41954 0
0.101755 -1.16138 0
0.0794649 -0.184916 0
0.0452094 -0.638473 0
0.234164 -2.39973 0
0.485996 -2.77321 0
0.274437 -0.505984 0
0.190315 -0.308686 0
0.229604 -0.713871 0
0.0326361 -0.105497 0
0.0880448 -0.164916 0
-0.0175276 -0.92807 0
0.537365 -2.21331 0
0.241866 -0.822389 0
0.0918241 -0.452341 0
0.0780989 -0.353785 0
-0.162879 -1.19124 0
0.00487706 -0.0894856 0
0.167999 -1.09309 0
0.0435688 -1.89485 0
0.145518 -0.973954 0
0.16716 -1.47623 0
0.181721 -0.305038 0
0.158058 -1.37188 0
0.000407456 -0.278615 0
0.293082 -0.805659 0
0.159716 -0.967734 0
0.507194 -1.10576 0
0.40599 -0.31089 0
0.647778 -2.20765 0
0.767384 -3.15126 0
0.240321 -0.562625 0
0.269258 -0.416181 0
0.170151 -0.880847 0
0.331874 -1.31863 0
0.109996 -1.3342 0
0.10789 -0.595499 0
0.255411 -0.264719 0
0.0708577 -0.217048 0
0.0376523 -1.20419 0
0.0506507 -0.892111 0
0.0988043 -0.994067 0
0.00524338 -0.101132 0
-0.0762782 -1.34049 0
0.111111 -0.619806 0
0.251921 -1.11848 0
0.418201 -1.42867 0
0.626055 -1.83217 0
0.350327 -0.926444 0
-0.0357857 -1.60545 0
0.0454005 -1.55482 0
0.0950348 -0.365269 0
0.440784 -1.11601 0
0.294487 -1.02731 0
0.368628 -0.23769 0
0.679646 -2.08916 0
-0.0619594 -1.48357 0
0.0947074 -1.44763 0
0.0219866 -0.254103 0
0.298582 -0.820813 0
0.171391 -0.943649 0
0.197716 -1.23118 0
0.182415 -0.304735 0
0.267058 -0.581865 0
0.0821765 -0.87626 0
0.0437253 -0.979312 0
0.00810164 -0.111407 0
-0.0633485 -1.24218 0
0.16406 -0.703178 0
0.259645 -1.2142 0
0.455562 -1.74699 0
0.0689992 -1.2297 0
0.0490163 -0.11488 0
0.684859 -1.93738 0
1.05865 -2.04374 0
0.954752 -2.46885 0
0.856141 -2.36552 0
0.955453 -2.77793 0
0.603982 -1.76473 0
0.970658 -2.14025 0
0.173379 -1.32506 0
0.593223 -1.46206 0
0.113906 -1.13444 0
0.104463 -0.129103 0
0.0366404 -1.12661 0
0.489356 -0.753357 0
0.135573 -1.01366 0
0.0791205 -1.31995 0
0.313928 -0.498623 0
0.355642 -0.944447 0
0.163175 -1.4878 0
0.285634 -1.26956 0
0.171962 -0.370872 0
0.02384 -1.18452 0
0.283846 -0.377391 0
0.558809 -1.98269 0
0.0841362 -1.13228 0
0.0833718 -0.341466 0
0.13349 -0.226243 0
0.0588044 -0.90555 0
0.273172 -0.286146 0
0.54935 -2.17324 0
0.213769 -1.17153 0
0.348365 -0.372131 0
0.272962 -0.379805 0
0.095232 -0.771855 0
0.231823 -1.01417 0
-0.0178462 -0.453258 0
0.255012 -0.577436 0
0.00832618 -2.63912 0
-0.118177 -2.13949 0
0.0446954 -0.479504 0
0.234527 -0.683593 0
-0.0472076 -2.63702 0
-0.0972249 -2.57667 0
0.0278315 -0.927514 0
0.186157 -0.634773 0
-0.119439 -0.790407 0
0.153786 -0.548632 0
0.0843408 -2.75582 0
-0.542055 -2.39411 0
0.599163 -2.00974 0
-0.352735 -2.64648 0
0.136009 -0.230103 0
0.146411 -0.657766 0
0.374825 -0.923978 0
0.375699 -2.36229 0
0.214898 -1.61989 0
0.0116891 -0.120719 0
0.0297482 -0.184278 0
0.0469789 -0.437217 0
0.660138 -1.35045 0
0.126923 -0.417783 0
0.0326669 -0.243816 0
0.0402122 -0.200307 0
0.605695 -1.80899 0
0.0700001 -0.277131 0
0.202254 -0.558563 0
0.0848833 -0.270176 0
0.303026 -1.88207 0
0.188172 -0.17138 0
0.16876 -1.0927 0
0.0361256 -0.406102 0
0.0709471 -0.269879 0
0.148056 -0.656695 0
0.415267 -1.12212 0
0.298007 -0.327528 0
0.242677 -0.757598 0
0.0172975 -0.133564 0
0.161943 -0.891238 0
0.0342175 -0.199021 0
0.275271 -0.82825 0
0.248132 -1.02304 0
0.144086 -0.933455 0
0.0502159 -1.43615 0
0.04144 -1.59314 0
-0.00265129 -1.50259 0
0.0277167 -1.48391 0
0.161262 -1.30064 0
-0.0793045 -1.30773 0
0.0015231 -0.465501 0
-0.0855781 -0.644091 0
-0.218428 -0.735619 0
0.150991 -0.718599 0
0.241333 -1.29749 0
0.151574 -0.736975 0
0.25049 -0.842778 0
-0.234663 -0.638026 0
-0.0744343 -0.593131 0
-0.12986 -0.547322 0
-0.382089 -0.729347 0
-0.240131 -1.55374 0
-0.408544 -1.99737 0
-0.262438 -0.607808 0
-0.142343 -0.495486 0
-0.177673 -0.452732 0
-0.213804 -0.497166 0
-1.1912 -1.52644 0
-0.292935 -0.545036 0
-0.352933 -0.651953 0
-0.233007 -0.629086 0
-0.209162 -0.487262 0
-0.587265 -1.08849 0
-0.721156 -1.35307 0
-0.613981 -1.12433 0
0.573751 -1.08761 0
0.412573 -1.39174 0
-0.68259 -1.34296 0
-0.19408 -0.324985 0
0.642681 -3.78561 0
-0.272924 -0.331172 0
-0.636707 -1.16541 0
-0.0945332 -0.322515 0
-0.5392 -2.05269 0
-0.0611255 -0.461375 0
-0.540433 -1.5995 0
-0.79684 -0.863965 0
-0.0751926 -1.05319 0
-0.613931 -0.928626 0
0.582883 -3.11397 0
-0.0226386 -1.19592 0
0.278576 -1.34114 0
-0.157256 -0.756477 0
-0.73959 -1.27752 0
0.598122 -1.883 0
0.183993 -1.43136 0
-0.720437 -1.43303 0
0.183717 -0.86637 0
-0.267176 -0.71258 0
0.384092 -1.8108 0
-0.344825 -0.654504 0
0.0133329 -0.340206 0
-0.207433 -1.03943 0
0.324799 -2.19643 0
0.243975 -1.94828 0
-0.541009 -0.809605 0
-0.70848 -0.59151 0
0.0143448 -0.504449 0
0.418401 -1.22065 0
0.361267 -1.77745 0
-0.342389 -0.746617 0
0.161898 -1.84225 0
0.554717 -1.6146 0
0.0313435 -0.256138 0
0.136005 -1.75045 0
-0.35147 -2.21921 0
-0.571914 -0.95347 0
0.00460793 -0.351975 0
0.0037361 -2.09984 0
0.388845 -2.54515 0
-0.211667 -1.24862 0
-0.130734 -2.34561 0
-0.0861612 -0.228824 0
-0.124114 -2.29543 0
-0.626871 -1.21569 0
-0.286617 -1.43567 0
-0.0952203 -0.306777 0
0.0444418 -3.36811 0
0.250144 -1.14816 0
-0.342105 -0.830422 0
0.0791549 -0.82277 0
-0.27688 -0.35832 0
-0.359668 -0.508325 0
0.72457 -1.26219 0
-0.0991823 -0.999177 0
0.111815 -0.721646 0
-0.26483 -0.300652 0
-0.385635 -0.426853 0
-0.539422 -0.876374 0
0.018483 -0.495688 0
-0.329021 -0.383665 0
0.104262 -1.33685 0
-0.208616 -0.316416 0
-0.0530158 -0.910592 0
-0.773392 -1.3505 0
0.519089 -1.77004 0
-0.0203163 -2.30792 0
-0.0219703 -0.27174 0
-0.714824 -1.41651 0
-0.0375867 -1.60362 0
-0.0795206 -3.00117 0
0.106806 -0.601839 0
0.590839 -0.933412 0
-0.0674619 -1.67676 0
-0.229362 -0.38858 0
-0.191536 -0.37486 0
-0.288433 -0.371869 0
-0.385058 -0.61743 0
-0.0186406 -1.50215 0
-0.154343 -0.417176 0
-0.489945 -0.925728 0
-0.933803 -1.42258 0
-0.746482 -0.955613 0
-0.657535 -0.942641 0
0.0805133 -1.21691 0
-0.20855 -0.37076 0
-0.0155581 -0.279441 0
-0.35014 -1.8871 0
0.027144 -2.3694 0
-0.416771 -2.17716 0
0.629359 -1.10196 0
-0.341067 -0.906419 0
-0.881572 -1.09135 0
-0.548051 -1.09995 0
0.483777 -1.02585 0
0.676759 -2.38606 0
0.395498 -1.51939 0
0.058848 -0.447883 0
-1.06189 -1.34619 0
0.0187725 -0.982815 0
-0.805095 -1.38551 0
0.108734 -1.19288 0
0.032239 -0.306477 0
0.0965392 -2.24212 0
-0.601183 -2.1555 0
0.06264 -0.454334 0
-0.282401 -0.388466 0
-0.500393 -0.728137 0
-0.879772 -0.992736 0
0.622277 -2.01535 0
0.25197 -1.15015 0
-0.161132 -0.295736 0
0.275432 -3.61268 0
-0.453842 -1.13508 0
-1.09655 -0.766712 0
0.0488564 -0.650109 0
0.117281 -0.88532 0
-0.192814 -0.258903 0
0.130381 -2.23049 0
-0.296314 -2.25818 0
0.167421 -2.72965 0
-0.901721 -1.11655 0
-0.00808117 -0.358644 0
0.00964305 -0.306904 0
0.244924 -3.09565 0
-0.232961 -0.395057 0
-0.27838 -0.347817 0
0.844414 -2.40497 0
-0.234359 -0.305453 0
-0.296328 -0.261743 0
0.658529 -2.43494 0
-0.247477 -0.279594 0
-0.290716 -0.262966 0
-0.179851 -0.739159 0
0.363589 -0.998925 0
0.911568 -1.36778 0
0.0606179 -0.857293 0
-0.0288096 -0.907307 0
-0.319452 -0.34699 0
-0.0694494 -0.442926 0
0.268952 -1.26274 0
0.096854 -0.756864 0
-0.415771 -0.757199 0
-0.112515 -0.586345 0
0.290072 -1.09918 0
-0.463791 -0.464266 0
0.089696 -0.921178 0
-0.174967 -0.370296 0
0.0557567 -0.526258 0
-0.281899 -0.302908 0
-0.219482 -0.301802 0
0.512865 -1.17594 0
-0.258627 -0.25005 0
-0.272953 -0.296048 0
0.958286 -1.30827 0
-0.231995 -0.240121 0
-0.304911 -0.260384 0
-0.704112 -1.16633 0
-0.587304 -1.76059 0
0.233336 -1.1885 0
-0.384135 -0.684779 0
-0.790672 -1.49666 0
-0.561928 -0.90152 0
0.269988 -1.22997 0
-0.63055 -0.746894 0
-0.402991 -0.741155 0
0.141426 -1.18393 0
-0.312219 -0.522578 0
-0.319255 -1.32652 0
-0.483828 -0.888167 0
0.0706764 -1.3891 0
-0.161446 -0.514185 0
-1.01405 -1.16707 0
-0.509679 -0.885521 0
-1.34959 -1.52656 0
-0.573045 -0.854642 0
-1.04589 -1.23241 0
-0.318396 -0.795041 0
-0.264186 -0.791981 0
-0.215409 -0.660812 0
-0.892338 -0.738352 0
0.190619 -1.00973 0
-1.30846 -1.36783 0
-0.0166078 -0.315623 0
0.0335755 -0.359399 0
-0.47286 -1.06713 0
-1.30067 -1.56472 0
-0.363233 -1.25151 0
-0.142946 -0.355801 0
-0.314881 -0.293447 0
-0.302715 -1.94149 0
-0.545262 -1.09871 0
-0.0131611 -1.67229 0
0.453739 -2.0205 0
-0.0684716 -1.10278 0
0.243043 -1.44448 0
0.392428 -1.1031 0
0.0277634 -1.18386 0
0.399793 -1.84615 0
-0.0598599 -1.12358 0
0.470054 -2.1815 0
0.192825 -0.488968 0
0.11179 -0.411896 0
0.0300234 -0.309676 0
0.0633742 -0.511506 0
0.478944 -1.22065 0
-0.55238 -0.852754 0
0.435356 -1.07226 0
0.83968 -1.32872 0
-0.429548 -0.886973 0
0.63319 -1.50013 0
0.711678 -1.40082 0
-0.486531 -1.06488 0
0.911772 -1.49661 0
0.403252 -1.27767 0
-0.665815 -0.92039 0
-1.05977 -0.976187 0
-0.0324367 -1.10661 0
0.243665 -1.07596 0
0.086607 -0.822023 0
0.471464 -0.842295 0
0.0769946 -0.724427 0
0.105929 -0.827129 0
0.652728 -0.941551 0
0.240569 -3.48664 0
0.0521823 -0.240459 0
-0.0509502 -0.305706 0
-0.237812 -0.486501 0
-0.0782963 -0.460149 0
0.167822 -0.138347 0
0.190413 -0.124187 0
0.185355 -0.239654 0
0.111495 -0.139044 0
0.240491 -0.181669 0
0.324251 -0.275502 0
-0.126555 -1.13832 0
0.220491 -0.206241 0
0.146208 -0.126163 0
0.0628186 -0.661736 0
0.150189 -0.487995 0
0.212557 -0.422237 0
0.173875 -0.575497 0
-0.434943 -1.29246 0
-0.200542 -0.417294 0
-0.328127 -0.50629 0
0.00079292 -1.90606 0
0.0733951 -2.1654 0
0.367132 -3.52519 0
0.177541 -3.13474 0
0.234974 -0.260087 0
0.206788 -0.134266 0
0.22197 -0.183158 0
0.251024 -0.267188 0
0.215274 -0.097762 0
0.202179 -0.104809 0
-0.0213282 -1.04885 0
-0.274389 -1.06743 0
0.226518 -0.126192 0
-0.0975522 -0.802442 0
0.367303 -0.214394 0
0.219542 -0.125063 0
0.00421943 -0.924583 0
0.257333 -0.144952 0
0.207956 -0.101314 0
0.205282 -0.133568 0
0.204303 -0.0927696 0
0.305395 -0.180016 0
0.186158 -0.0995314 0
0.149891 -0.237143 0
-0.602015 -2.35073 0
-1.0672 -2.53865 0
0.00341201 -2.79999 0
-0.593446 -2.20376 0
-0.188596 -3.20167 0
-0.913839 -2.8065 0
0.216058 -0.132563 0
0.156127 -2.5934 0
-0.226505 -2.57445 0
0.130496 -0.0989981 0
-0.187059 -0.415626 0
-0.442311 -2.26715 0
-0.646578 -1.60363 0
-0.749187 -2.59882 0
-0.00632918 -0.289558 0
0.309693 -0.206336 0
-0.0398055 -0.365444 0
-0.668343 -2.00854 0
-0.827297 -3.23779 0
-0.0129721 -0.311185 0
0.264367 -0.16155 0
-0.146244 -0.784003 0
0.167357 -0.136913 0
-0.857356 -2.25258 0
-1.25903 -2.90885 0
0.0945858 -0.939601 0
0.0738011 -0.719745 0
0.0156702 -0.718949 0
0.369548 -0.257056 0
-0.0697269 -0.718637 0
0.131094 -0.899154 0
0.0696921 -0.552686 0
0.0371882 -0.623934 0
0.103563 -0.183622 0
0.286889 -0.245531 0
-0.184784 -0.735587 0
0.141009 -0.131778 0
-0.221587 -2.27068 0
0.0270229 -0.169645 0
-0.228938 -2.19223 0
0.0232336 -0.122897 0
0.140905 -0.118821 0
-0.171273 -1.46042 0
-0.105137 -1.95566 0
-0.458146 -2.81853 0
-1.10204 -2.51704 0
-0.193132 -1.27665 0
-0.390163 -1.00206 0
0.250134 -0.183397 0
0.0325827 -0.493905 0
0.0946158 -0.20502 0
0.217236 -0.218933 0
-0.308924 -0.8109 0
-0.233637 -1.14681 0
0.162648 -0.157207 0
-0.0896574 -1.56441 0
0.0826001 -0.169775 0
-0.646397 -1.23281 0
-0.506547 -2.11678 0
0.0223792 -0.111666 0
0.184674 -0.194079 0
-0.768021 -2.26397 0
0.0121435 -0.14473 0
0.148718 -0.119832 0
-0.01582 -0.437666 0
-0.309447 -0.819305 0
-0.26348 -1.83466 0
-1.16393 -2.17162 0
-0.00391709 -0.337296 0
-0.316796 -0.899827 0
0.148876 -0.261789 0
0.0628386 -0.33459 0
-0.0272004 -1.41442 0
0.0335054 -0.111944 0
0.0443563 -0.125925 0
-0.758885 -1.72856 0
-0.0471095 -0.255614 0
-0.650181 -3.43707 0
-0.214451 -0.804707 0
0.245032 -2.38305 0
0.364144 -0.263012 0
0.18265 -0.1507 0
0.289024 -0.296468 0
0.190417 -0.177068 0
0.0529792 -0.32064 0
-0.578202 -1.60069 0
-0.0836081 -0.201545 0
-0.369332 -2.38446 0
-0.00546648 -0.336082 0
0.130747 -0.172689 0
0.186541 -0.12869 0
-0.00463994 -2.26626 0
0.273443 -0.233385 0
0.0597484 -0.129258 0
-0.924915 -2.98102 0
0.0140066 -0.288495 0
-0.0397026 -1.35538 0
-0.47021 -2.64572 0
0.0323466 -0.2386 0
-0.134786 -1.74283 0
-0.0841026 -1.26411 0
-0.296533 -1.55477 0
0.11154 -0.251841 0
-0.24896 -0.971627 0
-0.114955 -1.10196 0
0.453541 -0.259925 0
-0.0698096 -0.686166 0
0.443422 -0.271953 0
0.323659 -0.261079 0
0.227219 -0.298004 0
-0.693131 -2.40631 0
-0.0327103 -0.15963 0
-0.587976 -2.74319 0
-0.00278051 -0.172535 0
-0.543583 -3.28257 0
-0.0170452 -0.198603 0
-0.727352 -2.47216 0
-0.0849896 -0.239682 0
0.170134 -0.0969681 0
0.184125 -0.0985952 0
0.16382 -0.124879 0
0.16689 -0.43191 0
0.0902651 -0.286567 0
0.121002 -0.363115 0
0.125062 -0.166401 0
0.211543 -0.334943 0
0.116715 -0.224314 0
0.266515 -0.430404 0
-0.0562734 -1.00902 0
-0.0313412 -0.695463 0
0.090821 -0.0988253 0
0.0160703 -0.884014 0
-0.0124179 -1.28013 0
-0.0946685 -0.821051 0
0.0301641 -0.118673 0
0.0508685 -0.109644 0
-0.100766 -1.11954 0
-0.388822 -1.73661 0
0.0251489 -0.104792 0
0.0414889 -0.100539 0
-0.370336 -1.67482 0
0.0648101 -1.40116 0
-0.307489 -1.24858 0
0.0327833 -0.113303 0
0.117755 -0.132129 0
-0.285076 -1.31487 0
0.354162 -0.207701 0
0.197586 -0.199046 0
0.289694 -3.2832 0
0.346051 -0.203595 0
0.401846 -3.22454 0
0.303942 -0.21165 0
0.117455 -0.18328 0
0.0828044 -3.12759 0
0.299377 -0.204824 0
0.144405 -0.209802 0
0.0383806 -3.61131 0
-0.262925 -2.16611 0
0.159617 -2.09028 0
0.104637 -1.00699 0
-0.104205 -1.10474 0
-0.26352 -0.849487 0
-0.0322606 -0.3695 0
-0.134998 -0.754623 0
-0.0855712 -0.488628 0
-0.0216739 -0.57644 0
-0.155333 -0.697879 0
-0.183333 -0.60592 0
0.0383236 -0.722573 0
-0.163315 -0.934809 0
-0.118509 -0.762553 0
0.00923934 -0.535877 0
-0.269787 -0.418163 0
-0.109075 -1.11123 0
-0.0777206 -0.961826 0
-0.333902 -0.899825 0
-0.279236 -1.2924 0
-0.0773009 -0.473694 0
-0.316135 -1.7482 0
-0.349499 -1.12583 0
-0.0840926 -0.417328 0
-0.0265044 -1.01661 0
-0.130804 -0.728841 0
-0.230418 -0.335679 0
-0.315755 -1.58018 0
0.0153441 -0.387302 0
0.106314 -0.375505 0
0.0210436 -0.526584 0
0.171927 -0.549177 0
0.078132 -0.417899 0
0.175549 -0.325191 0
-0.246613 -0.807597 0
-0.0502195 -0.736185 0
-0.0149909 -0.167721 0
-0.285639 -3.01495 0
0.0532303 -0.195508 0
-0.168972 -3.42047 0
0.203264 -0.202241 0
0.0250524 -0.135838 0
-0.445932 -3.17651 0
-0.00972044 -0.136273 0
-0.78351 -2.79243 0
0.25063 -2.40494 0
0.0994495 -1.39848 0
0.206539 -1.22564 0
0.359631 -2.11755 0
0.232431 -0.27906 0
0.223156 -0.283064 0
0.0829536 -0.496533 0
0.201382 -0.554792 0
0.187977 -0.464465 0
0.594178 -3.33904 0
0.0617981 -0.372176 0
0.0719999 -0.37622 0
0.0772597 -0.19883 0
0.075133 -0.17498 0
1.01847 -1.34819 0
1.1 -1.04412 0
0.119594 -0.173857 0
1.33251 -1.17816 0
0.91346 -1.03099 0
0.801108 -0.714525 0
0.212553 -0.168035 0
0.0890854 -1.1868 0
-0.0977915 -1.20944 0
-0.0503707 -1.29508 0
0.28503 -1.04355 0
0.262203 -0.231046 0
0.174865 -0.208888 0
0.150569 -0.195182 0
0.237554 -0.230724 0
0.224586 -0.331827 0
0.532993 -0.581196 0
-0.00651943 -0.411959 0
0.0369207 -1.14628 0
-0.138084 -0.428637 0
0.509902 -1.83988 0
0.0936201 -0.429238 0
0.411889 -2.13033 0
0.630286 -0.803507 0
-0.0215737 -0.444542 0
-0.194165 -1.11128 0
-0.218471 -0.537625 0
0.542221 -1.89183 0
0.0176326 -0.609552 0
0.247948 -0.770743 0
0.13394 -0.406714 0
0.413636 -0.48023 0
0.952631 -0.857816 0
-0.0926913 -0.416249 0
0.346781 -1.61825 0
0.205739 -0.796743 0
0.297947 -0.37574 0
0.709886 -0.617096 0
-0.0618644 -0.320829 0
0.483263 -1.78219 0
0.0871719 -0.711071 0
0.26072 -0.50619 0
0.0967361 -0.399835 0
0.0922061 -0.361014 0
0.0891111 -0.648193 0
0.0230048 -0.488072 0
-0.0371032 -0.466665 0
0.0689301 -1.64454 0
0.0202849 -0.229223 0
0.101493 -0.158624 0
0.171924 -2.61208 0
0.192383 -1.50232 0
0.0225472 -0.231453 0
0.147979 -0.139783 0
0.31275 -2.46642 0
0.0413984 -0.748217 0
0.032609 -0.726913 0
0.0195923 -0.302778 0
-0.134703 -0.806921 0
0.00154719 -0.32777 0
0.302744 -0.415793 0
0.164856 -0.332287 0
0.203212 -1.60787 0
-0.314177 -1.25644 0
0.663189 -3.56431 0
0.241614 -2.97928 0
1.23297 -0.832722 0
0.50213 -0.6854 0
0.181459 -0.298893 0
0.433444 -2.50251 0
0.0769269 -0.333155 0
-0.108673 -1.11077 0
0.32317 -2.58468 0
0.0137183 -1.77309 0
0.603769 -0.8765 0
0.144987 -0.282415 0
0.0424986 -0.278005 0
-0.0949995 -0.984303 0
0.513019 -0.725376 0
0.10884 -0.280821 0
0.00123915 -0.350377 0
-0.351179 -0.904657 0
0.449748 -0.625566 0
-0.0731119 -0.366622 0
0.595317 -1.81863 0
0.0217994 -0.386445 0
0.112047 -0.666733 0
0.260409 -2.1471 0
0.0586203 -0.925286 0
0.0767712 -1.08952 0
0.0569497 -0.296277 0
0.0513298 -0.840368 0
0.645002 -2.93526 0
0.207033 -2.05782 0
0.0291093 -1.8082 0
0.308192 -2.63988 0
-0.0295245 -0.264241 0
0.40885 -1.9348 0
0.0153837 -0.362186 0
0.161074 -1.08617 0
0.362043 -1.75259 0
0.152178 -2.59697 0
0.221866 -0.721609 0
0.143919 -0.491655 0
0.152257 -2.78442 0
0.331607 -2.36618 0
0.020829 -0.210404 0
-0.155971 -0.611323 0
0.415228 -1.48304 0
0.230205 -0.793233 0
-9.30462e-05 -1.23843 0
0.0606945 -0.963001 0
0.0729029 -0.286884 0
0.271192 -1.8872 0
0.305053 -0.877466 0
-0.079742 -0.564613 0
0.0932675 -1.41772 0
0.187797 -0.53567 0
0.338202 -0.569437 0
0.232797 -2.77118 0
0.221508 -0.284596 0
0.139509 -1.43932 0
0.0587756 -1.80163 0
0.0871469 -0.26895 0
0.481416 -1.36807 0
0.0849876 -0.84031 0
0.320945 -1.12364 0
-0.0523854 -0.622763 0
0.0566401 -1.22206 0
0.304178 -0.778212 0
0.0408666 -0.250331 0
0.257067 -2.44521 0
0.117595 -0.263405 0
0.656189 -1.31541 0
-0.0398576 -0.853504 0
0.383617 -1.42801 0
-0.00271981 -0.30787 0
0.0749481 -1.65959 0
0.018555 -0.261369 0
0.0690536 -1.64078 0
0.273331 -1.36662 0
0.00995176 -0.767353 0
0.182256 -0.68536 0
0.206619 -0.69154 0
0.0633174 -0.701524 0
0.0939552 -0.327054 0
0.0266818 -2.50081 0
0.534432 -2.62808 0
0.0447285 -0.274503 0
-0.27614 -0.479545 0
0.626702 -1.80559 0
0.0798968 -0.726966 0
-0.218684 -0.434743 0
0.472251 -1.85994 0
0.17127 -0.375373 0
0.171958 -2.31234 0
0.144676 -0.218595 0
0.534813 -2.0409 0
0.0818552 -0.288318 0
0.113214 -0.208638 0
0.202167 -0.212073 0
0.112268 -0.256367 0
0.265087 -2.78794 0
0.270734 -0.40197 0
-0.17625 -0.692418 0
0.177184 -0.280022 0
-0.0746795 -0.552652 0
0.273522 -0.468785 0
0.469502 -0.597953 0
-0.0222476 -0.717985 0
0.167128 -0.128199 0
0.0976376 -0.224553 0
0.0254323 -1.0586 0