# vtk DataFile Version 2.0
Unstructured Grid by M++
ASCII
DATASET UNSTRUCTURED_GRID
POINTS 81 float
  1.000000   0.625000 0
  0.750000   0.375000 0
  1.000000   0.000000 0
  0.875000   0.875000 0
  0.750000   0.125000 0
  1.000000   1.000000 0
  0.875000   0.250000 0
  0.625000   0.875000 0
  1.000000   0.750000 0
  0.875000   0.000000 0
  1.000000   0.250000 0
  0.625000   0.375000 0
  0.875000   0.500000 0
  0.625000   0.625000 0
  1.000000   0.500000 0
  0.750000   0.500000 0
  0.750000   1.000000 0
  1.000000   0.125000 0
  0.625000   0.250000 0
  0.750000   0.750000 0
  0.625000   0.000000 0
  0.125000   0.375000 0
  0.000000   0.500000 0
  0.125000   0.625000 0
  0.625000   1.000000 0
  1.000000   0.875000 0
  0.875000   0.125000 0
  0.500000   0.250000 0
  0.625000   0.500000 0
  0.250000   0.625000 0
  0.000000   0.625000 0
  0.375000   0.500000 0
  0.375000   0.000000 0
  0.000000   0.125000 0
  0.125000   0.875000 0
  0.875000   1.000000 0
  0.750000   0.250000 0
  0.375000   0.375000 0
  0.250000   0.375000 0
  0.625000   0.750000 0
  0.125000   0.125000 0
  0.500000   0.000000 0
  0.250000   0.875000 0
  0.125000   0.500000 0
  0.500000   0.375000 0
  0.125000   0.000000 0
  0.250000   0.750000 0
  0.250000   0.500000 0
  0.000000   0.875000 0
  0.875000   0.625000 0
  0.500000   0.750000 0
  0.750000   0.625000 0
  0.250000   0.000000 0
  0.375000   0.750000 0
  0.750000   0.875000 0
  0.625000   0.125000 0
  0.250000   0.250000 0
  0.375000   1.000000 0
  0.375000   0.250000 0
  0.000000   0.375000 0
  0.500000   1.000000 0
  0.875000   0.750000 0
  0.750000   0.000000 0
  0.375000   0.125000 0
  0.500000   0.875000 0
  0.000000   0.000000 0
  0.125000   0.750000 0
  0.500000   0.625000 0
  0.125000   0.250000 0
  0.500000   0.125000 0
  0.250000   1.000000 0
  0.250000   0.125000 0
  0.000000   1.000000 0
  0.375000   0.875000 0
  0.000000   0.750000 0
  0.375000   0.625000 0
  0.000000   0.250000 0
  0.125000   1.000000 0
  1.000000   0.375000 0
  0.500000   0.500000 0
  0.875000   0.375000 0
CELLS 64 320
4 56 71 58 63
4 27 58 69 63
4 41 69 32 63
4 76 33 68 40
4 27 44 58 37
4 79 31 44 37
4 56 38 68 21
4 56 58 38 37
4 52 32 71 63
4 47 38 31 37
4 76 68 59 21
4 22 59 43 21
4 65 45 33 40
4 47 43 38 21
4 52 71 45 40
4 56 68 71 40
4 74 30 66 23
4 46 66 29 23
4 22 43 30 23
4 72 48 77 34
4 46 53 42 73
4 50 64 53 73
4 70 42 57 73
4 74 66 48 34
4 46 42 66 34
4 47 29 43 23
4 70 77 42 34
4 60 57 64 73
4 79 67 31 75
4 47 31 29 75
4 50 53 67 75
4 46 29 53 75
4 10 78 6 80
4 36 6 1 80
4 15 1 12 80
4 36 4 6 26
4 14 12 78 80
4 2 17 9 26
4 36 18 4 55
4 15 28 1 11
4 62 4 20 55
4 10 6 17 26
4 27 18 44 11
4 62 9 4 26
4 27 69 18 55
4 36 1 18 11
4 41 20 69 55
4 79 44 28 11
4 16 24 54 7
4 19 54 39 7
4 50 39 64 7
4 8 25 61 3
4 60 64 24 7
4 79 28 67 13
4 19 51 61 49
4 8 61 0 49
4 15 51 28 13
4 19 39 51 13
4 50 67 39 13
4 19 61 54 3
4 14 0 12 49
4 5 35 25 3
4 15 12 51 49
4 16 54 35 3
CELL_TYPES 64
8
8
8
8
8
8
8
8
8
8
8
8
8
8
8
8
8
8
8
8
8
8
8
8
8
8
8
8
8
8
8
8
8
8
8
8
8
8
8
8
8
8
8
8
8
8
8
8
8
8
8
8
8
8
8
8
8
8
8
8
8
8
8
8
CELL_DATA 64
VECTORS vector_value float
-0.110781 -0.411786 0
-0.112811 -0.0467762 0
-0.156507 -0.243035 0
0.0939304 -0.32415 0
-0.0489902 -0.233684 0
0.2611 -0.956206 0
0.0229422 -0.358446 0
-0.15594 -0.225113 0
-0.0442584 -0.476828 0
-0.0906632 -0.127312 0
0.0811048 -0.512336 0
-0.116929 -0.545223 0
0.0347336 -0.149387 0
-0.144326 -0.225535 0
0.0508194 -0.793413 0
0.0741997 -0.582386 0
0.00461149 -0.218216 0
-0.00193462 -0.166642 0
-0.0497822 -0.289598 0
0.331894 -0.698685 0
0.85348 -1.94268 0
0.367242 -2.10173 0
0.705835 -1.54607 0
0.0515316 -0.269965 0
0.185271 -0.211378 0
-0.222205 -0.31646 0
0.99761 -0.5832 0
-0.058791 -1.48475 0
0.922287 -2.36957 0
-0.0552228 -0.234969 0
0.75924 -2.93748 0
0.20896 -0.820137 0
-0.374554 -0.515597 0
-1.12914 -2.2188 0
-0.182995 -0.867412 0
0.0962597 -1.34725 0
-0.545133 -1.74633 0
-0.00264646 -0.188218 0
0.14985 -3.8976 0
1.03393 -1.40324 0
0.0207755 -3.75984 0
-0.0620133 -0.280083 0
0.739147 -1.58519 0
0.0189261 -1.84244 0
0.0264012 -1.10997 0
0.230936 -2.35084 0
-0.000633631 -0.546832 0
0.938239 -2.12875 0
-0.2222 -0.425225 0
0.074848 -0.207508 0
0.016853 -1.04451 0
0.319307 -1.88491 0
-0.521548 -1.17784 0
1.0922 -2.27017 0
0.0852873 -0.151586 0
0.0657033 -2.16419 0
0.0782405 -0.15032 0
0.0476658 -0.120144 0
0.273161 -1.42161 0
0.378904 -0.337328 0
-0.0245044 -2.24235 0
0.217508 -1.345 0
0.0376435 -0.126571 0
0.307708 -0.739233 0
