# vtk DataFile Version 2.0
Unstructured Grid by M++
ASCII
DATASET UNSTRUCTURED_GRID
POINTS 81 float
  1.000000   0.625000 0
  0.750000   0.375000 0
  1.000000   0.000000 0
  0.875000   0.875000 0
  0.750000   0.125000 0
  1.000000   1.000000 0
  0.875000   0.250000 0
  0.625000   0.875000 0
  1.000000   0.750000 0
  0.875000   0.000000 0
  1.000000   0.250000 0
  0.625000   0.375000 0
  0.875000   0.500000 0
  0.625000   0.625000 0
  1.000000   0.500000 0
  0.750000   0.500000 0
  0.750000   1.000000 0
  1.000000   0.125000 0
  0.625000   0.250000 0
  0.750000   0.750000 0
  0.625000   0.000000 0
  0.125000   0.375000 0
  0.000000   0.500000 0
  0.125000   0.625000 0
  0.625000   1.000000 0
  1.000000   0.875000 0
  0.875000   0.125000 0
  0.500000   0.250000 0
  0.625000   0.500000 0
  0.250000   0.625000 0
  0.000000   0.625000 0
  0.375000   0.500000 0
  0.375000   0.000000 0
  0.000000   0.125000 0
  0.125000   0.875000 0
  0.875000   1.000000 0
  0.750000   0.250000 0
  0.375000   0.375000 0
  0.250000   0.375000 0
  0.625000   0.750000 0
  0.125000   0.125000 0
  0.500000   0.000000 0
  0.250000   0.875000 0
  0.125000   0.500000 0
  0.500000   0.375000 0
  0.125000   0.000000 0
  0.250000   0.750000 0
  0.250000   0.500000 0
  0.000000   0.875000 0
  0.875000   0.625000 0
  0.500000   0.750000 0
  0.750000   0.625000 0
  0.250000   0.000000 0
  0.375000   0.750000 0
  0.750000   0.875000 0
  0.625000   0.125000 0
  0.250000   0.250000 0
  0.375000   1.000000 0
  0.375000   0.250000 0
  0.000000   0.375000 0
  0.500000   1.000000 0
  0.875000   0.750000 0
  0.750000   0.000000 0
  0.375000   0.125000 0
  0.500000   0.875000 0
  0.000000   0.000000 0
  0.125000   0.750000 0
  0.500000   0.625000 0
  0.125000   0.250000 0
  0.500000   0.125000 0
  0.250000   1.000000 0
  0.250000   0.125000 0
  0.000000   1.000000 0
  0.375000   0.875000 0
  0.000000   0.750000 0
  0.375000   0.625000 0
  0.000000   0.250000 0
  0.125000   1.000000 0
  1.000000   0.375000 0
  0.500000   0.500000 0
  0.875000   0.375000 0
CELLS 64 320
4 56 71 58 63
4 27 58 69 63
4 41 69 32 63
4 76 33 68 40
4 27 44 58 37
4 79 31 44 37
4 56 38 68 21
4 56 58 38 37
4 52 32 71 63
4 47 38 31 37
4 76 68 59 21
4 22 59 43 21
4 65 45 33 40
4 47 43 38 21
4 52 71 45 40
4 56 68 71 40
4 74 30 66 23
4 46 66 29 23
4 22 43 30 23
4 72 48 77 34
4 46 53 42 73
4 50 64 53 73
4 70 42 57 73
4 74 66 48 34
4 46 42 66 34
4 47 29 43 23
4 70 77 42 34
4 60 57 64 73
4 79 67 31 75
4 47 31 29 75
4 50 53 67 75
4 46 29 53 75
4 10 78 6 80
4 36 6 1 80
4 15 1 12 80
4 36 4 6 26
4 14 12 78 80
4 2 17 9 26
4 36 18 4 55
4 15 28 1 11
4 62 4 20 55
4 10 6 17 26
4 27 18 44 11
4 62 9 4 26
4 27 69 18 55
4 36 1 18 11
4 41 20 69 55
4 79 44 28 11
4 16 24 54 7
4 19 54 39 7
4 50 39 64 7
4 8 25 61 3
4 60 64 24 7
4 79 28 67 13
4 19 51 61 49
4 8 61 0 49
4 15 51 28 13
4 19 39 51 13
4 50 67 39 13
4 19 61 54 3
4 14 0 12 49
4 5 35 25 3
4 15 12 51 49
4 16 54 35 3
CELL_TYPES 64
8
8
8
8
8
8
8
8
8
8
8
8
8
8
8
8
8
8
8
8
8
8
8
8
8
8
8
8
8
8
8
8
8
8
8
8
8
8
8
8
8
8
8
8
8
8
8
8
8
8
8
8
8
8
8
8
8
8
8
8
8
8
8
8
CELL_DATA 64
VECTORS vector_value float
0.0763447 -0.79628 0
0.052639 -0.431327 0
0.222789 -0.467381 0
0.00732558 -4.11199 0
0.0844612 -0.953978 0
-0.0474576 -1.00299 0
0.326279 -1.33305 0
0.00175476 -0.343126 0
0.108726 -0.596304 0
-0.174318 -0.43903 0
0.303885 -4.69408 0
-0.841349 -4.47238 0
-0.104773 -4.32269 0
-0.705019 -1.45095 0
-0.0913048 -1.393 0
0.0872265 -1.6404 0
-0.269981 -1.55943 0
-1.13755 -1.67456 0
-0.593115 -2.65919 0
-0.00964605 -0.806326 0
-0.555397 -2.19766 0
-0.33924 -1.97202 0
-0.561172 -1.58058 0
-0.171152 -1.18434 0
-0.39808 -0.906074 0
-1.58261 -2.59161 0
-0.0333441 -0.968483 0
-1.68553 -1.84823 0
-0.172214 -1.23773 0
-0.626128 -0.843498 0
-1.12399 -2.11856 0
-1.76553 -1.76029 0
-0.0373249 -0.470533 0
-0.0159953 -0.067593 0
-0.00716616 -0.0618669 0
-0.158673 -0.191211 0
0.00375998 -0.487825 0
-0.0426784 -0.142302 0
0.0427149 -0.222451 0
-0.00490001 -0.0228056 0
-0.00347193 -0.477343 0
-0.0988606 -0.287444 0
0.0655576 -0.105348 0
-0.106892 -0.212861 0
0.23879 -0.318895 0
-0.00446554 -0.0322949 0
0.141405 -0.388122 0
-0.00997316 -0.062158 0
-1.04657 -0.645534 0
-0.514317 -0.239942 0
-0.818872 -0.492296 0
-0.0679199 -0.595065 0
-1.68492 -0.690123 0
-0.0530797 -0.0374416 0
-0.251053 -0.45184 0
-0.124494 -0.336855 0
-0.104566 -0.0234998 0
-0.271167 -0.0227658 0
-0.328768 -0.0756924 0
-0.312463 -0.412598 0
0.0847601 -0.359628 0
-0.153204 -1.11744 0
0.0260043 -0.247401 0
-0.442844 -0.343288 0
