# vtk DataFile Version 2.0
Unstructured Grid by M++
ASCII
DATASET UNSTRUCTURED_GRID
POINTS 81 float
  1.000000   0.625000 0
  0.750000   0.375000 0
  1.000000   0.000000 0
  0.875000   0.875000 0
  0.750000   0.125000 0
  1.000000   1.000000 0
  0.875000   0.250000 0
  0.625000   0.875000 0
  1.000000   0.750000 0
  0.875000   0.000000 0
  1.000000   0.250000 0
  0.625000   0.375000 0
  0.875000   0.500000 0
  0.625000   0.625000 0
  1.000000   0.500000 0
  0.750000   0.500000 0
  0.750000   1.000000 0
  1.000000   0.125000 0
  0.625000   0.250000 0
  0.750000   0.750000 0
  0.625000   0.000000 0
  0.125000   0.375000 0
  0.000000   0.500000 0
  0.125000   0.625000 0
  0.625000   1.000000 0
  1.000000   0.875000 0
  0.875000   0.125000 0
  0.500000   0.250000 0
  0.625000   0.500000 0
  0.250000   0.625000 0
  0.000000   0.625000 0
  0.375000   0.500000 0
  0.375000   0.000000 0
  0.000000   0.125000 0
  0.125000   0.875000 0
  0.875000   1.000000 0
  0.750000   0.250000 0
  0.375000   0.375000 0
  0.250000   0.375000 0
  0.625000   0.750000 0
  0.125000   0.125000 0
  0.500000   0.000000 0
  0.250000   0.875000 0
  0.125000   0.500000 0
  0.500000   0.375000 0
  0.125000   0.000000 0
  0.250000   0.750000 0
  0.250000   0.500000 0
  0.000000   0.875000 0
  0.875000   0.625000 0
  0.500000   0.750000 0
  0.750000   0.625000 0
  0.250000   0.000000 0
  0.375000   0.750000 0
  0.750000   0.875000 0
  0.625000   0.125000 0
  0.250000   0.250000 0
  0.375000   1.000000 0
  0.375000   0.250000 0
  0.000000   0.375000 0
  0.500000   1.000000 0
  0.875000   0.750000 0
  0.750000   0.000000 0
  0.375000   0.125000 0
  0.500000   0.875000 0
  0.000000   0.000000 0
  0.125000   0.750000 0
  0.500000   0.625000 0
  0.125000   0.250000 0
  0.500000   0.125000 0
  0.250000   1.000000 0
  0.250000   0.125000 0
  0.000000   1.000000 0
  0.375000   0.875000 0
  0.000000   0.750000 0
  0.375000   0.625000 0
  0.000000   0.250000 0
  0.125000   1.000000 0
  1.000000   0.375000 0
  0.500000   0.500000 0
  0.875000   0.375000 0
CELLS 64 320
4 56 71 58 63
4 27 58 69 63
4 41 69 32 63
4 76 33 68 40
4 27 44 58 37
4 79 31 44 37
4 56 38 68 21
4 56 58 38 37
4 52 32 71 63
4 47 38 31 37
4 76 68 59 21
4 22 59 43 21
4 65 45 33 40
4 47 43 38 21
4 52 71 45 40
4 56 68 71 40
4 74 30 66 23
4 46 66 29 23
4 22 43 30 23
4 72 48 77 34
4 46 53 42 73
4 50 64 53 73
4 70 42 57 73
4 74 66 48 34
4 46 42 66 34
4 47 29 43 23
4 70 77 42 34
4 60 57 64 73
4 79 67 31 75
4 47 31 29 75
4 50 53 67 75
4 46 29 53 75
4 10 78 6 80
4 36 6 1 80
4 15 1 12 80
4 36 4 6 26
4 14 12 78 80
4 2 17 9 26
4 36 18 4 55
4 15 28 1 11
4 62 4 20 55
4 10 6 17 26
4 27 18 44 11
4 62 9 4 26
4 27 69 18 55
4 36 1 18 11
4 41 20 69 55
4 79 44 28 11
4 16 24 54 7
4 19 54 39 7
4 50 39 64 7
4 8 25 61 3
4 60 64 24 7
4 79 28 67 13
4 19 51 61 49
4 8 61 0 49
4 15 51 28 13
4 19 39 51 13
4 50 67 39 13
4 19 61 54 3
4 14 0 12 49
4 5 35 25 3
4 15 12 51 49
4 16 54 35 3
CELL_TYPES 64
8
8
8
8
8
8
8
8
8
8
8
8
8
8
8
8
8
8
8
8
8
8
8
8
8
8
8
8
8
8
8
8
8
8
8
8
8
8
8
8
8
8
8
8
8
8
8
8
8
8
8
8
8
8
8
8
8
8
8
8
8
8
8
8
CELL_DATA 64
VECTORS vector_value float
0.0498659 -0.943311 0
0.0632048 -0.367077 0
0.152564 -0.66323 0
-0.000649552 -0.455232 0
0.510501 -0.556407 0
0.862362 -0.783574 0
0.0416413 -0.410098 0
0.356231 -1.14048 0
0.185637 -0.733941 0
0.632236 -0.905568 0
0.00719728 -0.482769 0
-0.0209426 -0.430253 0
-0.0979066 -0.62724 0
0.455658 -1.258 0
-0.0406376 -0.175875 0
-0.00837482 -0.429862 0
0.346035 -0.785926 0
0.522027 -1.46041 0
0.0763517 -0.518265 0
-0.296221 -1.56471 0
-0.364281 -0.727171 0
-0.981103 -1.85856 0
-0.132799 -0.206953 0
0.156198 -1.49791 0
0.132048 -1.07065 0
0.287628 -1.8069 0
-0.61194 -0.926505 0
0.0141203 -1.112 0
0.812357 -0.831465 0
0.704232 -1.2259 0
0.222751 -0.658448 0
-0.0702678 -1.97409 0
-0.090058 -1.0039 0
-0.0255894 -1.8705 0
0.440735 -0.928041 0
0.666631 -1.99228 0
0.192937 -1.44145 0
0.799885 -2.5246 0
-0.220694 -2.17551 0
0.268881 -0.590473 0
-0.183037 -0.652224 0
0.0851815 -1.06908 0
0.960613 -0.991379 0
0.363888 -0.786458 0
0.100969 -0.567654 0
1.18804 -1.54447 0
-0.750345 -1.83644 0
1.04636 -1.66264 0
0.039681 -0.871847 0
-0.07685 -0.370369 0
-0.0132738 -0.132079 0
0.486132 -1.85614 0
-0.70751 -1.32375 0
0.3948 -0.801736 0
-0.422471 -0.568472 0
-0.525832 -1.63934 0
0.188141 -0.829446 0
-0.0975066 -0.344602 0
0.224824 -0.568724 0
0.0756686 -0.487119 0
-0.0085122 -0.789867 0
-0.0441207 -0.836003 0
-0.0945464 -1.19642 0
0.474156 -1.15824 0
