# vtk DataFile Version 2.0
Unstructured Grid by M++
ASCII
DATASET UNSTRUCTURED_GRID
POINTS 81 float
  1.000000   0.625000 0
  0.750000   0.375000 0
  1.000000   0.000000 0
  0.875000   0.875000 0
  0.750000   0.125000 0
  1.000000   1.000000 0
  0.875000   0.250000 0
  0.625000   0.875000 0
  1.000000   0.750000 0
  0.875000   0.000000 0
  1.000000   0.250000 0
  0.625000   0.375000 0
  0.875000   0.500000 0
  0.625000   0.625000 0
  1.000000   0.500000 0
  0.750000   0.500000 0
  0.750000   1.000000 0
  1.000000   0.125000 0
  0.625000   0.250000 0
  0.750000   0.750000 0
  0.625000   0.000000 0
  0.125000   0.375000 0
  0.000000   0.500000 0
  0.125000   0.625000 0
  0.625000   1.000000 0
  1.000000   0.875000 0
  0.875000   0.125000 0
  0.500000   0.250000 0
  0.625000   0.500000 0
  0.250000   0.625000 0
  0.000000   0.625000 0
  0.375000   0.500000 0
  0.375000   0.000000 0
  0.000000   0.125000 0
  0.125000   0.875000 0
  0.875000   1.000000 0
  0.750000   0.250000 0
  0.375000   0.375000 0
  0.250000   0.375000 0
  0.625000   0.750000 0
  0.125000   0.125000 0
  0.500000   0.000000 0
  0.250000   0.875000 0
  0.125000   0.500000 0
  0.500000   0.375000 0
  0.125000   0.000000 0
  0.250000   0.750000 0
  0.250000   0.500000 0
  0.000000   0.875000 0
  0.875000   0.625000 0
  0.500000   0.750000 0
  0.750000   0.625000 0
  0.250000   0.000000 0
  0.375000   0.750000 0
  0.750000   0.875000 0
  0.625000   0.125000 0
  0.250000   0.250000 0
  0.375000   1.000000 0
  0.375000   0.250000 0
  0.000000   0.375000 0
  0.500000   1.000000 0
  0.875000   0.750000 0
  0.750000   0.000000 0
  0.375000   0.125000 0
  0.500000   0.875000 0
  0.000000   0.000000 0
  0.125000   0.750000 0
  0.500000   0.625000 0
  0.125000   0.250000 0
  0.500000   0.125000 0
  0.250000   1.000000 0
  0.250000   0.125000 0
  0.000000   1.000000 0
  0.375000   0.875000 0
  0.000000   0.750000 0
  0.375000   0.625000 0
  0.000000   0.250000 0
  0.125000   1.000000 0
  1.000000   0.375000 0
  0.500000   0.500000 0
  0.875000   0.375000 0
CELLS 64 320
4 56 71 58 63
4 27 58 69 63
4 41 69 32 63
4 76 33 68 40
4 27 44 58 37
4 79 31 44 37
4 56 38 68 21
4 56 58 38 37
4 52 32 71 63
4 47 38 31 37
4 76 68 59 21
4 22 59 43 21
4 65 45 33 40
4 47 43 38 21
4 52 71 45 40
4 56 68 71 40
4 74 30 66 23
4 46 66 29 23
4 22 43 30 23
4 72 48 77 34
4 46 53 42 73
4 50 64 53 73
4 70 42 57 73
4 74 66 48 34
4 46 42 66 34
4 47 29 43 23
4 70 77 42 34
4 60 57 64 73
4 79 67 31 75
4 47 31 29 75
4 50 53 67 75
4 46 29 53 75
4 10 78 6 80
4 36 6 1 80
4 15 1 12 80
4 36 4 6 26
4 14 12 78 80
4 2 17 9 26
4 36 18 4 55
4 15 28 1 11
4 62 4 20 55
4 10 6 17 26
4 27 18 44 11
4 62 9 4 26
4 27 69 18 55
4 36 1 18 11
4 41 20 69 55
4 79 44 28 11
4 16 24 54 7
4 19 54 39 7
4 50 39 64 7
4 8 25 61 3
4 60 64 24 7
4 79 28 67 13
4 19 51 61 49
4 8 61 0 49
4 15 51 28 13
4 19 39 51 13
4 50 67 39 13
4 19 61 54 3
4 14 0 12 49
4 5 35 25 3
4 15 12 51 49
4 16 54 35 3
CELL_TYPES 64
8
8
8
8
8
8
8
8
8
8
8
8
8
8
8
8
8
8
8
8
8
8
8
8
8
8
8
8
8
8
8
8
8
8
8
8
8
8
8
8
8
8
8
8
8
8
8
8
8
8
8
8
8
8
8
8
8
8
8
8
8
8
8
8
CELL_DATA 64
VECTORS vector_value float
-2.22992 -3.61122 0
-1.12168 -2.72485 0
-0.0336146 -0.697723 0
0.00618442 -0.0397801 0
-0.921073 -5.28818 0
0.374875 -3.72667 0
0.150658 -0.135718 0
0.173571 -1.02721 0
-0.332865 -4.00467 0
0.36055 -1.11627 0
0.116262 -0.240616 0
0.23728 -0.538728 0
-0.0692402 -0.154477 0
0.378616 -0.202192 0
-0.73884 -1.27793 0
0.0619068 -0.221077 0
0.29794 -1.82967 0
0.566688 -0.1448 0
0.337 -1.12034 0
-0.415244 -1.66326 0
-0.00761537 -0.166859 0
-0.00980263 -0.514803 0
0.0866929 -0.238572 0
-0.0989609 -1.99807 0
-0.0827736 -0.337765 0
0.835402 -0.172405 0
-0.588238 -0.644968 0
0.714532 -0.723008 0
-0.0640358 -1.32934 0
1.14097 -2.27208 0
-1.23074 -0.996739 0
-0.1816 -1.16524 0
-0.0104438 -0.0539137 0
-0.00486883 -0.036665 0
-0.28572 -0.179222 0
0.0406734 -0.166065 0
-0.0478149 -0.132251 0
-0.00238309 -0.00632775 0
0.179339 -0.500589 0
-0.962512 -1.0362 0
0.307316 -1.04263 0
-0.01478 -0.0195146 0
-0.323923 -0.756874 0
0.0196285 -0.246237 0
0.495629 -0.716897 0
-0.0301915 -0.460827 0
0.214275 -0.570014 0
-1.14809 -1.06847 0
-0.288722 -0.996011 0
0.0274997 -0.808772 0
-0.23115 -2.21981 0
-0.134238 -0.631517 0
0.36501 -2.07578 0
-0.466336 -0.890092 0
-0.0507184 -1.3577 0
0.0244867 -0.6438 0
-0.779166 -0.982835 0
-0.128465 -0.320767 0
-0.789497 -1.54129 0
-0.234979 -1.3224 0
-0.249095 -0.678594 0
-0.0629649 -1.41791 0
-0.882816 -0.554322 0
0.0315177 -0.240495 0
