# vtk DataFile Version 2.0
Unstructured Grid by M++
ASCII
DATASET UNSTRUCTURED_GRID
POINTS 289 float
  0.562500   1.000000 0
  0.562500   0.625000 0
  0.625000   1.000000 0
  0.562500   0.937500 0
  0.562500   0.562500 0
  0.625000   0.937500 0
  0.562500   0.875000 0
  0.625000   0.750000 0
  0.625000   0.625000 0
  0.562500   0.812500 0
  0.562500   0.750000 0
  0.562500   0.687500 0
  0.625000   0.875000 0
  0.625000   0.812500 0
  0.625000   0.687500 0
  0.687500   0.125000 0
  0.875000   0.062500 0
  0.625000   0.125000 0
  0.625000   0.187500 0
  0.625000   0.250000 0
  0.812500   0.187500 0
  1.000000   0.125000 0
  0.687500   0.187500 0
  0.750000   0.125000 0
  0.937500   0.062500 0
  0.937500   0.125000 0
  0.750000   0.187500 0
  0.812500   0.062500 0
  0.812500   0.125000 0
  0.875000   0.687500 0
  0.187500   0.250000 0
  0.437500   0.250000 0
  0.375000   0.187500 0
  0.812500   0.625000 0
  0.125000   0.187500 0
  0.937500   0.750000 0
  0.250000   0.312500 0
  0.500000   0.312500 0
  0.625000   0.062500 0
  0.437500   0.500000 0
  0.375000   0.125000 0
  0.437500   0.187500 0
  0.437500   0.437500 0
  0.437500   0.375000 0
  0.875000   0.875000 0
  0.187500   0.375000 0
  0.687500   0.562500 0
  0.687500   0.625000 0
  0.000000   0.125000 0
  0.937500   0.625000 0
  0.250000   0.125000 0
  0.375000   0.062500 0
  0.375000   0.000000 0
  0.812500   0.500000 0
  0.125000   0.000000 0
  0.937500   0.937500 0
  0.250000   0.437500 0
  0.687500   0.875000 0
  0.687500   0.937500 0
  0.000000   0.437500 0
  0.500000   0.500000 0
  0.500000   0.437500 0
  0.750000   0.937500 0
  0.750000   1.000000 0
  0.062500   0.500000 0
  1.000000   1.000000 0
  0.312500   0.500000 0
  0.875000   0.562500 0
  0.187500   0.062500 0
  0.437500   0.125000 0
  0.437500   0.062500 0
  0.500000   0.375000 0
  0.937500   0.812500 0
  0.937500   0.875000 0
  0.250000   0.375000 0
  0.687500   0.812500 0
  0.000000   0.375000 0
  0.750000   0.562500 0
  0.062500   0.125000 0
  1.000000   0.562500 0
  1.000000   0.625000 0
  0.312500   0.125000 0
  0.562500   0.125000 0
  0.437500   0.000000 0
  0.875000   0.437500 0
  0.875000   0.500000 0
  0.187500   0.000000 0
  0.937500   0.562500 0
  0.937500   0.500000 0
  0.250000   0.062500 0
  0.687500   0.500000 0
  0.000000   0.062500 0
  0.500000   0.062500 0
  1.000000   0.875000 0
  1.000000   0.937500 0
  0.312500   0.437500 0
  0.750000   0.875000 0
  0.062500   0.437500 0
  0.812500   0.937500 0
  0.125000   0.500000 0
  0.375000   0.500000 0
  0.625000   0.562500 0
  0.625000   0.500000 0
  0.437500   0.312500 0
  0.875000   0.812500 0
  0.875000   0.750000 0
  0.187500   0.312500 0
  0.812500   0.687500 0
  0.812500   0.750000 0
  0.125000   0.250000 0
  0.375000   0.250000 0
  1.000000   0.687500 0
  0.312500   0.187500 0
  0.750000   0.687500 0
  0.750000   0.625000 0
  0.062500   0.187500 0
  0.562500   0.250000 0
  0.562500   0.187500 0
  0.375000   1.000000 0
  0.500000   0.562500 0
  0.500000   0.250000 0
  0.750000   0.250000 0
  0.500000   0.125000 0
  0.500000   0.187500 0
  1.000000   0.187500 0
  0.625000   0.375000 0
  0.875000   0.375000 0
  1.000000   0.437500 0
  0.312500   0.000000 0
  0.562500   0.000000 0
  0.812500   0.000000 0
  0.250000   0.687500 0
  0.000000   0.687500 0
  0.500000   1.000000 0
  0.250000   1.000000 0
  0.000000   1.000000 0
  0.437500   0.687500 0
  0.437500   0.625000 0
  0.187500   0.625000 0
  0.687500   0.750000 0
  0.000000   0.312500 0
  0.000000   0.250000 0
  0.375000   0.375000 0
  0.375000   0.312500 0
  0.812500   0.812500 0
  0.125000   0.312500 0
  0.875000   0.625000 0
  0.187500   0.187500 0
  0.187500   0.125000 0
  0.937500   1.000000 0
  0.250000   0.562500 0
  0.250000   0.500000 0
  0.687500   1.000000 0
  0.000000   0.500000 0
  0.687500   0.687500 0
  0.000000   0.187500 0
  0.937500   0.687500 0
  0.250000   0.250000 0
  0.250000   0.187500 0
  0.187500   0.687500 0
  0.000000   0.750000 0
  0.250000   0.750000 0
  0.125000   0.625000 0
  0.750000   0.750000 0
  0.062500   0.250000 0
  0.875000   0.937500 0
  0.187500   0.500000 0
  0.187500   0.437500 0
  0.812500   0.562500 0
  0.125000   0.125000 0
  0.125000   0.062500 0
  0.375000   0.625000 0
  0.375000   0.687500 0
  1.000000   0.750000 0
  0.312500   0.250000 0
  0.312500   0.312500 0
  0.812500   0.312500 0
  0.562500   0.312500 0
  0.375000   0.750000 0
  0.500000   0.625000 0
  0.250000   0.625000 0
  0.312500   0.687500 0
  0.750000   0.812500 0
  0.062500   0.312500 0
  0.062500   0.375000 0
  1.000000   0.812500 0
  0.312500   0.375000 0
  0.562500   0.375000 0
  0.687500   0.437500 0
  0.000000   0.000000 0
  0.500000   0.000000 0
  0.937500   0.437500 0
  0.250000   0.000000 0
  0.375000   0.437500 0
  0.812500   0.875000 0
  0.125000   0.375000 0
  0.125000   0.437500 0
  0.625000   0.437500 0
  1.000000   0.500000 0
  0.312500   0.062500 0
  0.750000   0.500000 0
  0.062500   0.000000 0
  0.062500   0.062500 0
  0.562500   0.062500 0
  0.062500   0.750000 0
  0.312500   0.750000 0
  0.312500   0.625000 0
  0.312500   0.562500 0
  0.062500   0.562500 0
  0.187500   1.000000 0
  0.437500   0.562500 0
  0.875000   1.000000 0
  0.187500   0.562500 0
  0.500000   0.937500 0
  0.250000   0.937500 0
  0.312500   1.000000 0
  0.125000   0.750000 0
  0.125000   0.687500 0
  1.000000   0.000000 0
  0.000000   0.937500 0
  0.000000   0.875000 0
  0.875000   0.125000 0
  0.875000   0.187500 0
  0.062500   0.812500 0
  0.312500   0.812500 0
  0.000000   0.812500 0
  0.000000   0.625000 0
  0.000000   0.562500 0
  0.062500   1.000000 0
  0.062500   0.937500 0
  0.937500   0.187500 0
  0.937500   0.250000 0
  0.062500   0.687500 0
  0.062500   0.625000 0
  0.125000   1.000000 0
  1.000000   0.250000 0
  1.000000   0.312500 0
  0.062500   0.875000 0
  0.125000   0.812500 0
  0.375000   0.812500 0
  0.125000   0.875000 0
  0.375000   0.937500 0
  0.375000   0.875000 0
  0.187500   0.750000 0
  0.187500   0.812500 0
  0.437500   0.812500 0
  0.187500   0.875000 0
  0.437500   0.875000 0
  0.375000   0.562500 0
  0.812500   1.000000 0
  0.125000   0.562500 0
  0.437500   1.000000 0
  0.437500   0.937500 0
  0.187500   0.937500 0
  0.125000   0.937500 0
  0.500000   0.687500 0
  0.500000   0.750000 0
  0.500000   0.812500 0
  0.250000   0.812500 0
  0.250000   0.875000 0
  0.500000   0.875000 0
  0.437500   0.750000 0
  0.312500   0.875000 0
  0.312500   0.937500 0
  0.687500   0.250000 0
  0.687500   0.312500 0
  0.937500   0.312500 0
  0.875000   0.250000 0
  0.625000   0.000000 0
  0.875000   0.000000 0
  0.687500   0.375000 0
  0.937500   0.375000 0
  0.875000   0.312500 0
  0.625000   0.312500 0
  0.687500   0.000000 0
  0.937500   0.000000 0
  0.750000   0.312500 0
  0.750000   0.375000 0
  1.000000   0.375000 0
  0.812500   0.250000 0
  0.562500   0.437500 0
  0.562500   0.500000 0
  0.687500   0.062500 0
  0.750000   0.437500 0
  0.750000   0.000000 0
  0.750000   0.062500 0
  1.000000   0.062500 0
  0.812500   0.375000 0
  0.812500   0.437500 0
CELLS 256 1280
4 169 170 148 68
4 151 166 56 167
4 195 45 196 167
4 54 170 201 202
4 109 34 30 147
4 40 32 81 112
4 192 89 86 68
4 48 91 78 202
4 99 64 196 97
4 71 43 37 103
4 74 186 56 95
4 109 164 34 115
4 50 81 158 112
4 122 69 92 70
4 195 145 45 106
4 110 143 174 175
4 157 30 158 147
4 40 69 32 41
4 50 158 148 147
4 141 155 164 115
4 122 123 69 41
4 142 186 143 175
4 60 39 61 42
4 40 51 69 70
4 120 31 123 41
4 157 174 36 175
4 50 148 89 68
4 48 78 155 115
4 52 83 51 70
4 151 56 66 95
4 71 61 43 42
4 169 148 34 147
4 100 193 39 42
4 40 81 51 199
4 110 174 32 112
4 109 30 145 106
4 100 66 193 95
4 169 34 78 115
4 190 92 83 70
4 50 89 81 199
4 54 86 170 68
4 74 56 45 167
4 142 143 43 103
4 153 59 64 97
4 99 196 166 167
4 169 78 170 202
4 142 193 186 95
4 192 128 89 199
4 74 45 36 106
4 110 31 143 103
4 76 184 59 97
4 142 43 193 42
4 52 51 128 199
4 189 201 91 202
4 120 37 31 103
4 74 36 186 175
4 195 196 184 97
4 141 164 140 183
4 157 158 174 112
4 109 145 164 183
4 195 184 145 183
4 110 32 31 41
4 157 36 30 106
4 76 140 184 183
4 171 172 206 181
4 178 172 261 136
4 256 261 255 136
4 256 257 261 245
4 180 150 206 207
4 60 119 39 210
4 118 215 241 263
4 178 205 172 181
4 216 243 238 244
4 162 217 233 232
4 180 206 131 181
4 179 137 119 210
4 216 204 217 232
4 220 237 219 229
4 216 217 243 159
4 259 258 262 224
4 240 254 237 229
4 153 64 227 208
4 161 205 258 224
4 240 237 238 223
4 226 227 233 208
4 234 228 254 229
4 171 248 137 210
4 160 132 204 232
4 180 131 138 159
4 133 251 213 252
4 171 206 248 207
4 162 138 217 159
4 161 258 243 244
4 220 225 237 223
4 151 150 166 212
4 260 247 257 245
4 259 262 214 263
4 151 66 150 207
4 234 254 209 253
4 162 233 250 208
4 242 241 262 263
4 171 137 172 136
4 161 243 131 159
4 160 204 225 223
4 161 131 205 181
4 179 255 137 136
4 216 238 204 223
4 100 39 248 210
4 260 213 247 252
4 226 233 132 232
4 134 214 215 263
4 180 138 150 212
4 178 261 239 245
4 259 246 258 244
4 178 239 205 224
4 240 238 246 244
4 242 262 239 224
4 99 250 64 208
4 240 246 254 253
4 242 239 247 245
4 135 219 228 229
4 99 166 250 212
4 259 214 246 253
4 118 241 251 252
4 100 248 66 207
4 134 209 214 253
4 162 250 138 212
4 242 247 241 252
4 71 187 61 280
4 102 281 197 280
4 122 92 82 203
4 17 18 82 117
4 122 82 123 117
4 19 264 273 265
4 267 279 222 20
4 125 273 270 265
4 267 272 279 176
4 19 116 18 117
4 21 25 286 24
4 23 28 26 20
4 23 285 28 27
4 218 286 275 24
4 85 53 84 288
4 235 236 231 266
4 221 222 28 20
4 267 222 231 230
4 268 38 129 203
4 125 270 197 188
4 126 287 272 176
4 277 270 276 265
4 267 231 272 266
4 125 197 187 280
4 190 129 92 203
4 277 276 287 176
4 19 18 264 22
4 17 82 38 203
4 102 197 90 188
4 126 84 287 288
4 284 130 285 27
4 121 276 264 265
4 71 37 187 177
4 120 123 116 117
4 198 88 127 191
4 221 16 25 24
4 23 26 15 22
4 121 279 276 176
4 235 231 124 230
4 125 187 273 177
4 278 271 236 266
4 277 287 283 288
4 284 285 274 282
4 278 127 271 191
4 269 275 16 24
4 200 283 53 288
4 23 15 285 282
4 121 26 279 20
4 21 124 25 230
4 19 273 116 177
4 200 90 283 188
4 126 271 84 191
4 269 16 130 27
4 17 38 15 282
4 221 25 222 230
4 121 264 26 22
4 120 116 37 177
4 60 61 281 280
4 277 283 270 188
4 126 272 271 266
4 268 274 38 282
4 85 84 88 191
4 17 15 18 22
4 221 28 16 27
4 93 94 73 55
4 85 88 67 87
4 80 49 79 87
4 44 104 73 72
4 146 33 67 168
4 211 165 149 55
4 8 47 14 154
4 105 104 108 144
4 105 108 29 107
4 7 139 13 75
4 44 165 194 98
4 200 53 77 168
4 8 1 101 4
4 2 5 152 58
4 260 6 213 3
4 105 35 104 72
4 96 57 182 75
4 7 14 139 154
4 146 29 33 107
4 7 13 10 9
4 12 13 57 75
4 85 67 53 168
4 44 73 165 55
4 63 152 62 58
4 8 101 47 46
4 96 182 194 144
4 60 281 119 4
4 12 5 6 3
4 173 185 35 72
4 65 149 94 55
4 146 67 49 87
4 114 113 47 154
4 163 108 182 144
4 12 6 13 9
4 173 35 111 156
4 163 182 139 75
4 260 257 6 9
4 105 29 35 156
4 163 139 113 154
4 256 10 257 9
4 146 49 29 156
4 163 113 108 107
4 80 111 49 156
4 102 101 281 4
4 12 57 5 58
4 44 194 104 144
4 96 194 62 98
4 2 0 5 3
4 93 73 185 72
4 179 119 1 4
4 200 77 90 46
4 114 33 113 107
4 7 10 14 11
4 96 62 57 58
4 133 213 0 3
4 102 90 101 46
4 256 255 10 11
4 63 62 249 98
4 114 47 77 46
4 179 1 255 11
4 211 249 165 98
4 114 77 33 168
4 198 79 88 87
4 8 14 1 11
CELL_TYPES 256
8
8
8
8
8
8
8
8
8
8
8
8
8
8
8
8
8
8
8
8
8
8
8
8
8
8
8
8
8
8
8
8
8
8
8
8
8
8
8
8
8
8
8
8
8
8
8
8
8
8
8
8
8
8
8
8
8
8
8
8
8
8
8
8
8
8
8
8
8
8
8
8
8
8
8
8
8
8
8
8
8
8
8
8
8
8
8
8
8
8
8
8
8
8
8
8
8
8
8
8
8
8
8
8
8
8
8
8
8
8
8
8
8
8
8
8
8
8
8
8
8
8
8
8
8
8
8
8
8
8
8
8
8
8
8
8
8
8
8
8
8
8
8
8
8
8
8
8
8
8
8
8
8
8
8
8
8
8
8
8
8
8
8
8
8
8
8
8
8
8
8
8
8
8
8
8
8
8
8
8
8
8
8
8
8
8
8
8
8
8
8
8
8
8
8
8
8
8
8
8
8
8
8
8
8
8
8
8
8
8
8
8
8
8
8
8
8
8
8
8
8
8
8
8
8
8
8
8
8
8
8
8
8
8
8
8
8
8
8
8
8
8
8
8
8
8
8
8
8
8
8
8
8
8
8
8
CELL_DATA 256
VECTORS vector_value float
-0.211537 -1.15585 0
-0.740581 -1.07438 0
-0.739203 -1.08007 0
-0.0955632 -1.01686 0
0.604381 -1.28758 0
0.315114 -1.5439 0
-0.188532 -0.870804 0
-0.00318961 -0.425028 0
-0.155941 -0.905584 0
-0.129594 -4.64166 0
-0.435744 -0.908293 0
0.205201 -1.00243 0
0.0653058 -0.904897 0
1.23495 -3.6291 0
-0.149678 -1.15584 0
0.12952 -0.908908 0
0.578423 -0.848244 0
0.830525 -4.86352 0
0.226697 -1.30787 0
0.0290088 -0.493945 0
1.10596 -3.62237 0
0.0697675 -1.00519 0
0.229681 -2.57852 0
1.14907 -4.3128 0
-0.204611 -3.36129 0
0.107733 -0.4843 0
-0.459564 -1.1634 0
-0.00371355 -0.376187 0
0.218245 -2.97174 0
-0.323303 -0.974025 0
0.170609 -3.8431 0
0.154453 -0.862571 0
0.585823 -4.02607 0
0.205414 -0.875576 0
-0.0489985 -1.46588 0
0.451378 -1.25075 0
0.313076 -2.47086 0
0.0822736 -0.848787 0
0.685565 -4.14778 0
-0.224949 -0.886477 0
-0.360637 -1.57036 0
-0.557015 -0.774941 0
0.00906813 -3.65942 0
-0.0263601 -0.379434 0
-0.517768 -0.989659 0
-0.025057 -0.717625 0
0.0896322 -1.15508 0
-0.0324468 -0.553964 0
-0.210898 -0.780444 0
-0.485857 -4.92448 0
-0.113107 -0.543039 0
0.790292 -4.25866 0
0.018369 -0.481004 0
0.0212891 -0.377812 0
-0.586022 -3.82286 0
-0.0410766 -0.589126 0
-0.516915 -1.43068 0
0.00343291 -0.40293 0
0.45259 -0.833732 0
0.334464 -1.76124 0
0.00591867 -1.6545 0
-0.302421 -5.30472 0
0.268647 -0.775751 0
0.080609 -0.634881 0
-0.0508626 -5.92209 0
-1.56138 -2.15226 0
-0.898299 -0.18801 0
-1.05621 -0.708039 0
-0.193765 -1.49104 0
0.0875235 -1.26166 0
0.327917 -0.855447 0
-0.568103 -4.10524 0
0.806266 -1.19841 0
-0.0753922 -0.638232 0
0.365309 -2.40248 0
-0.16633 -0.571397 0
0.0424043 -0.559251 0
0.208626 -0.962598 0
0.309126 -0.854959 0
-0.0684273 -0.780321 0
0.234697 -1.28189 0
-0.0393077 -0.327124 0
0.0359278 -1.43136 0
0.455415 -1.26696 0
-0.0337423 -0.225305 0
-0.169588 -1.06128 0
0.467045 -1.81034 0
0.0112825 -0.168453 0
-0.0403733 -0.754223 0
-0.667673 -1.52771 0
1.10618 -6.40436 0
-0.0665981 -0.4808 0
0.706084 -1.16361 0
0.126329 -0.479467 0
-0.313289 -0.863007 0
-0.595372 -0.954785 0
0.248519 -0.866363 0
-0.386946 -1.77924 0
-0.110236 -0.626394 0
-0.107373 -0.736722 0
0.0103372 -1.11661 0
-0.346865 -1.50187 0
0.782392 -1.10042 0
0.100624 -0.251587 0
0.613045 -2.25665 0
-0.496332 -0.213489 0
0.464197 -0.845804 0
1.64791 -4.25943 0
-1.01601 -1.40291 0
-0.0147096 -0.179091 0
0.200003 -0.706242 0
-0.258466 -0.974059 0
-1.10223 -1.96103 0
0.10587 -0.870694 0
-0.927156 -3.09781 0
0.425354 -1.09401 0
-0.5969 -2.15006 0
-0.0809127 -0.757101 0
0.0150981 -0.789542 0
-0.919025 -2.3686 0
-0.0324287 -1.1581 0
-0.178544 -0.620886 0
0.0350307 -0.615201 0
0.153015 -1.16757 0
0.479455 -3.17553 0
0.13372 -1.28568 0
-0.171814 -0.433824 0
-0.95351 -2.29979 0
-0.32216 -0.657513 0
-0.474683 -0.412037 0
0.840727 -1.52057 0
0.0367021 -0.168144 0
0.491695 -0.806753 0
-0.0946298 -0.100973 0
-0.104166 -0.116906 0
-0.162469 -0.136215 0
-0.0520736 -0.108436 0
-0.0521463 -0.137502 0
-0.0181137 -0.172736 0
-0.134217 -0.137082 0
-0.0710405 -0.114021 0
-0.00657238 -0.136072 0
0.0502862 -0.146952 0
0.00578141 -0.339049 0
-0.113717 -0.0818092 0
-0.0886147 -0.0978984 0
0.324364 -1.10541 0
-0.17718 -0.156115 0
-0.0319677 -0.0841716 0
-0.124543 -0.12486 0
-0.0293277 -0.128588 0
-0.229032 -0.207574 0
0.600656 -2.05436 0
-0.0673112 -0.0822127 0
-0.0545112 -0.0969669 0
0.31816 -0.610531 0
-0.155202 -0.282473 0
0.0306556 -0.163858 0
-0.0300972 -0.0799931 0
-0.051653 -0.06999 0
-0.160511 -0.751075 0
-0.0859502 -0.541326 0
0.0081017 -0.197238 0
-0.0216266 -0.0432237 0
-0.0560406 -0.0757164 0
-0.0342624 -0.04339 0
-0.0424733 -0.296793 0
-0.152921 -0.175068 0
0.0236795 -0.279077 0
-0.0570219 -0.138468 0
-0.0556959 -0.125335 0
0.0284893 -0.254424 0
-0.0160086 -0.0661998 0
0.0816462 -0.259972 0
-0.0899869 -0.13931 0
-0.0635091 -0.0624249 0
-0.0295146 -0.215848 0
-0.156382 -0.209917 0
-0.00501181 -0.235585 0
0.0492295 -0.23577 0
-0.0112374 -0.0400818 0
-0.0139034 -0.17036 0
-0.0855592 -0.0767759 0
-0.0517234 -0.0523604 0
-0.191434 -0.668441 0
-0.67563 -0.817171 0
-0.138281 -0.192425 0
0.0163414 -0.246256 0
0.0351802 -0.402227 0
0.0470731 -0.250043 0
-0.0202707 -0.107777 0
-0.0402834 -0.0633898 0
-0.170039 -0.511105 0
-0.00836483 -0.184674 0
-0.00786066 -0.243581 0
-0.274858 -0.546427 0
0.0239142 -0.093993 0
-0.339799 -1.03539 0
-1.03144 -1.26166 0
-0.56594 -0.930369 0
-0.194693 -0.325024 0
-0.401821 -0.851708 0
-0.506178 -1.53349 0
0.0496364 -0.134365 0
-0.633291 -0.589486 0
-0.414882 -1.3198 0
-0.627016 -0.588072 0
-0.094057 -0.335796 0
-0.280764 -0.74308 0
-0.840281 -1.24757 0
-0.0178433 -0.124587 0
-0.490295 -0.378732 0
-0.202583 -0.796562 0
0.0603302 -0.181885 0
-0.486403 -0.869397 0
-0.432356 -0.884738 0
-0.686307 -1.15602 0
-0.583122 -1.15211 0
-0.452116 -0.417719 0
-0.663852 -0.608512 0
-0.000853523 -0.176217 0
-0.174438 -0.867283 0
0.00864324 -0.126207 0
-0.831109 -1.2582 0
-1.04322 -1.47849 0
-0.203193 -0.409825 0
0.0151641 -0.211246 0
-0.635549 -0.935837 0
-0.457252 -0.555903 0
-0.0208353 -0.168215 0
-1.07325 -1.38591 0
-0.629433 -0.255195 0
0.0106707 -0.113935 0
-0.685098 -0.957462 0
0.00611177 -0.227087 0
-0.568451 -0.71307 0
-0.362837 -1.13481 0
-0.699161 -1.58501 0
-0.232923 -0.736852 0
-0.475676 -0.695581 0
-0.0583133 -0.246181 0
-0.340332 -0.242842 0
0.0399861 -0.412671 0
-0.286742 -0.392025 0
-0.501029 -0.219249 0
-0.112066 -0.682867 0
-0.896293 -0.949215 0
-0.262203 -0.712279 0
-0.649066 -0.100077 0
-0.111951 -0.626897 0
-0.22623 -0.727584 0
-0.863279 -0.146428 0
-0.107487 -1.23267 0
0.0465706 -0.173233 0
-0.0122081 -0.199358 0
-1.1216 -0.383807 0
