# vtk DataFile Version 2.0
Unstructured Grid by M++
ASCII
DATASET UNSTRUCTURED_GRID
POINTS 81 float
  1.000000   0.625000 0
  0.750000   0.375000 0
  1.000000   0.000000 0
  0.875000   0.875000 0
  0.750000   0.125000 0
  1.000000   1.000000 0
  0.875000   0.250000 0
  0.625000   0.875000 0
  1.000000   0.750000 0
  0.875000   0.000000 0
  1.000000   0.250000 0
  0.625000   0.375000 0
  0.875000   0.500000 0
  0.625000   0.625000 0
  1.000000   0.500000 0
  0.750000   0.500000 0
  0.750000   1.000000 0
  1.000000   0.125000 0
  0.625000   0.250000 0
  0.750000   0.750000 0
  0.625000   0.000000 0
  0.125000   0.375000 0
  0.000000   0.500000 0
  0.125000   0.625000 0
  0.625000   1.000000 0
  1.000000   0.875000 0
  0.875000   0.125000 0
  0.500000   0.250000 0
  0.625000   0.500000 0
  0.250000   0.625000 0
  0.000000   0.625000 0
  0.375000   0.500000 0
  0.375000   0.000000 0
  0.000000   0.125000 0
  0.125000   0.875000 0
  0.875000   1.000000 0
  0.750000   0.250000 0
  0.375000   0.375000 0
  0.250000   0.375000 0
  0.625000   0.750000 0
  0.125000   0.125000 0
  0.500000   0.000000 0
  0.250000   0.875000 0
  0.125000   0.500000 0
  0.500000   0.375000 0
  0.125000   0.000000 0
  0.250000   0.750000 0
  0.250000   0.500000 0
  0.000000   0.875000 0
  0.875000   0.625000 0
  0.500000   0.750000 0
  0.750000   0.625000 0
  0.250000   0.000000 0
  0.375000   0.750000 0
  0.750000   0.875000 0
  0.625000   0.125000 0
  0.250000   0.250000 0
  0.375000   1.000000 0
  0.375000   0.250000 0
  0.000000   0.375000 0
  0.500000   1.000000 0
  0.875000   0.750000 0
  0.750000   0.000000 0
  0.375000   0.125000 0
  0.500000   0.875000 0
  0.000000   0.000000 0
  0.125000   0.750000 0
  0.500000   0.625000 0
  0.125000   0.250000 0
  0.500000   0.125000 0
  0.250000   1.000000 0
  0.250000   0.125000 0
  0.000000   1.000000 0
  0.375000   0.875000 0
  0.000000   0.750000 0
  0.375000   0.625000 0
  0.000000   0.250000 0
  0.125000   1.000000 0
  1.000000   0.375000 0
  0.500000   0.500000 0
  0.875000   0.375000 0
CELLS 64 320
4 56 71 58 63
4 27 58 69 63
4 41 69 32 63
4 76 33 68 40
4 27 44 58 37
4 79 31 44 37
4 56 38 68 21
4 56 58 38 37
4 52 32 71 63
4 47 38 31 37
4 76 68 59 21
4 22 59 43 21
4 65 45 33 40
4 47 43 38 21
4 52 71 45 40
4 56 68 71 40
4 74 30 66 23
4 46 66 29 23
4 22 43 30 23
4 72 48 77 34
4 46 53 42 73
4 50 64 53 73
4 70 42 57 73
4 74 66 48 34
4 46 42 66 34
4 47 29 43 23
4 70 77 42 34
4 60 57 64 73
4 79 67 31 75
4 47 31 29 75
4 50 53 67 75
4 46 29 53 75
4 10 78 6 80
4 36 6 1 80
4 15 1 12 80
4 36 4 6 26
4 14 12 78 80
4 2 17 9 26
4 36 18 4 55
4 15 28 1 11
4 62 4 20 55
4 10 6 17 26
4 27 18 44 11
4 62 9 4 26
4 27 69 18 55
4 36 1 18 11
4 41 20 69 55
4 79 44 28 11
4 16 24 54 7
4 19 54 39 7
4 50 39 64 7
4 8 25 61 3
4 60 64 24 7
4 79 28 67 13
4 19 51 61 49
4 8 61 0 49
4 15 51 28 13
4 19 39 51 13
4 50 67 39 13
4 19 61 54 3
4 14 0 12 49
4 5 35 25 3
4 15 12 51 49
4 16 54 35 3
CELL_TYPES 64
8
8
8
8
8
8
8
8
8
8
8
8
8
8
8
8
8
8
8
8
8
8
8
8
8
8
8
8
8
8
8
8
8
8
8
8
8
8
8
8
8
8
8
8
8
8
8
8
8
8
8
8
8
8
8
8
8
8
8
8
8
8
8
8
CELL_DATA 64
VECTORS vector_value float
0.308218 -0.66136 0
0.782663 -1.01985 0
0.0635425 -0.586463 0
0.0765134 -1.09889 0
0.505202 -1.5993 0
0.255647 -2.01884 0
0.273388 -0.316197 0
0.230013 -0.702628 0
0.00445075 -0.528137 0
0.221286 -0.862613 0
0.173133 -1.41554 0
-0.0565372 -1.53959 0
0.0903108 -0.86995 0
0.0326772 -0.370067 0
0.0800144 -0.537731 0
0.190276 -0.30105 0
-0.168909 -1.38969 0
-0.0775425 -0.388829 0
0.00611014 -1.37426 0
0.196876 -0.609315 0
0.0428488 -0.857318 0
-0.00401638 -1.44306 0
0.170576 -1.03868 0
-0.23742 -0.87456 0
-0.250549 -1.01664 0
-0.0923363 -0.577224 0
0.218593 -1.23592 0
0.0189677 -1.253 0
-0.152802 -1.67375 0
-0.0944294 -1.01221 0
-0.187662 -1.56004 0
-0.0539695 -0.976866 0
-0.421017 -0.932001 0
-0.675358 -1.10411 0
-0.047292 -0.618403 0
-0.111748 -1.33484 0
-0.113636 -1.71937 0
0.0307913 -0.493041 0
0.730447 -2.20116 0
-0.036994 -0.275041 0
0.251108 -2.63474 0
-0.122672 -0.463311 0
0.764361 -0.893923 0
0.17407 -1.73461 0
1.3289 -0.919539 0
0.135399 -1.03631 0
0.137258 -0.615325 0
-0.00534486 -0.596078 0
0.17713 -1.09912 0
-0.00546017 -1.04702 0
-0.0968618 -0.583634 0
0.328158 -1.08632 0
0.0273742 -0.706344 0
-0.1527 -0.651518 0
0.229278 -0.832056 0
0.214539 -1.60348 0
-0.0812927 -0.318398 0
-0.0834621 -0.423606 0
-0.310055 -0.82543 0
0.365279 -1.09145 0
0.0164804 -1.74973 0
-0.180991 -0.620216 0
-0.0199848 -0.642914 0
-0.024886 -1.4374 0
