# vtk DataFile Version 2.0
Unstructured Grid by M++
ASCII
DATASET UNSTRUCTURED_GRID
POINTS 1089 float
  0.718750   0.687500 0
  0.750000   0.687500 0
  0.718750   0.656250 0
  0.750000   0.718750 0
  0.625000   0.562500 0
  0.625000   0.593750 0
  0.656250   0.593750 0
  0.750000   0.750000 0
  0.687500   0.656250 0
  0.687500   0.625000 0
  0.656250   0.625000 0
  0.906250   0.593750 0
  1.000000   0.968750 0
  0.750000   0.968750 0
  0.718750   0.968750 0
  0.718750   1.000000 0
  0.750000   1.000000 0
  0.906250   0.906250 0
  0.843750   0.531250 0
  0.656250   0.937500 0
  0.656250   0.906250 0
  0.562500   0.812500 0
  0.562500   0.843750 0
  0.593750   0.875000 0
  0.593750   0.843750 0
  0.812500   0.718750 0
  0.625000   0.625000 0
  0.968750   0.875000 0
  0.531250   0.875000 0
  0.625000   0.937500 0
  0.562500   0.562500 0
  0.906250   0.812500 0
  0.531250   0.781250 0
  0.562500   0.593750 0
  0.906250   0.843750 0
  0.625000   0.656250 0
  0.968750   0.906250 0
  0.687500   0.968750 0
  0.812500   0.812500 0
  0.687500   1.000000 0
  0.687500   0.687500 0
  0.937500   0.843750 0
  0.593750   0.593750 0
  1.000000   0.625000 0
  0.968750   0.593750 0
  0.906250   0.875000 0
  0.968750   0.625000 0
  0.625000   0.875000 0
  0.875000   0.875000 0
  0.625000   0.906250 0
  0.875000   0.843750 0
  0.531250   0.812500 0
  0.968750   0.562500 0
  0.593750   0.625000 0
  0.937500   0.875000 0
  0.656250   0.687500 0
  1.000000   0.937500 0
  0.875000   0.562500 0
  0.687500   0.937500 0
  0.937500   0.625000 0
  0.812500   0.781250 0
  0.937500   0.562500 0
  0.875000   0.781250 0
  0.531250   0.531250 0
  0.718750   0.937500 0
  0.968750   0.937500 0
  0.906250   0.562500 0
  0.843750   0.781250 0
  0.593750   0.562500 0
  1.000000   0.906250 0
  0.656250   0.656250 0
  0.937500   0.906250 0
  0.875000   0.531250 0
  0.812500   0.750000 0
  0.656250   0.968750 0
  0.937500   0.531250 0
  0.843750   0.812500 0
  0.906250   0.531250 0
  0.843750   0.750000 0
  0.937500   0.593750 0
  0.875000   0.812500 0
  0.531250   0.562500 0
  1.000000   0.593750 0
  0.562500   0.906250 0
  0.562500   0.531250 0
  0.593750   0.906250 0
  0.593750   0.937500 0
  0.562500   0.875000 0
  0.781250   0.750000 0
  0.781250   0.781250 0
  0.593750   0.531250 0
  1.000000   0.687500 0
  0.531250   0.843750 0
  0.718750   0.718750 0
  0.781250   0.718750 0
  0.781250   0.687500 0
  1.000000   0.656250 0
  0.968750   0.656250 0
  0.843750   0.843750 0
  0.781250   1.000000 0
  0.656250   0.312500 0
  0.531250   0.250000 0
  0.875000   0.500000 0
  0.531250   0.218750 0
  0.875000   0.468750 0
  0.531250   0.156250 0
  0.593750   0.812500 0
  0.093750   0.562500 0
  0.656250   0.562500 0
  0.156250   0.312500 0
  0.031250   0.812500 0
  0.125000   1.000000 0
  0.312500   0.250000 0
  0.250000   0.500000 0
  0.375000   0.000000 0
  0.187500   0.750000 0
  0.812500   0.906250 0
  0.312500   0.656250 0
  0.250000   0.906250 0
  0.875000   0.656250 0
  0.375000   0.406250 0
  0.750000   0.843750 0
  0.250000   0.593750 0
  0.187500   0.843750 0
  0.812500   0.593750 0
  0.312500   0.343750 0
  0.625000   0.968750 0
  0.125000   0.718750 0
  0.687500   0.718750 0
  0.187500   0.468750 0
  0.062500   0.968750 0
  0.125000   0.656250 0
  0.187500   0.406250 0
  0.250000   0.156250 0
  0.062500   0.906250 0
  0.468750   0.906250 0
  0.656250   0.156250 0
  0.468750   0.812500 0
  0.593750   0.312500 0
  0.656250   0.062500 0
  0.625000   0.812500 0
  0.125000   0.562500 0
  0.687500   0.562500 0
  0.187500   0.312500 0
  0.062500   0.812500 0
  0.562500   0.937500 0
  0.062500   0.687500 0
  0.625000   0.687500 0
  0.125000   0.437500 0
  0.000000   0.937500 0
  0.062500   0.625000 0
  0.187500   0.125000 0
  0.125000   0.375000 0
  0.000000   0.875000 0
  0.406250   0.875000 0
  0.468750   0.625000 0
  0.593750   0.125000 0
  0.812500   0.937500 0
  0.312500   0.687500 0
  0.250000   0.937500 0
  0.875000   0.687500 0
  0.375000   0.437500 0
  0.750000   0.875000 0
  0.250000   0.625000 0
  0.187500   0.875000 0
  0.812500   0.625000 0
  0.312500   0.375000 0
  0.468750   0.781250 0
  0.593750   0.281250 0
  0.656250   0.031250 0
  0.625000   0.781250 0
  0.125000   0.531250 0
  0.062500   0.781250 0
  0.687500   0.531250 0
  0.187500   0.281250 0
  0.500000   0.812500 0
  0.687500   0.062500 0
  0.625000   0.312500 0
  0.656250   0.812500 0
  0.156250   0.562500 0
  0.718750   0.562500 0
  0.218750   0.312500 0
  0.093750   0.812500 0
  0.437500   0.968750 0
  0.625000   0.218750 0
  0.500000   0.781250 0
  0.687500   0.031250 0
  0.625000   0.281250 0
  0.656250   0.781250 0
  0.156250   0.531250 0
  0.718750   0.531250 0
  0.218750   0.281250 0
  0.093750   0.781250 0
  0.062500   0.562500 0
  0.125000   0.312500 0
  0.187500   0.062500 0
  0.000000   0.812500 0
  0.406250   0.812500 0
  0.968750   0.812500 0
  0.468750   0.562500 0
  0.593750   0.062500 0
  0.218750   0.687500 0
  0.156250   0.937500 0
  0.281250   0.437500 0
  0.062500   0.843750 0
  0.687500   0.593750 0
  0.187500   0.343750 0
  0.625000   0.843750 0
  0.125000   0.593750 0
  0.312500   0.843750 0
  0.437500   0.343750 0
  0.500000   0.093750 0
  0.375000   0.593750 0
  0.312500   0.906250 0
  0.937500   0.656250 0
  0.437500   0.406250 0
  0.875000   0.906250 0
  0.375000   0.656250 0
  0.062500   0.875000 0
  0.187500   0.375000 0
  0.250000   0.125000 0
  0.125000   0.625000 0
  0.093750   0.656250 0
  0.031250   0.906250 0
  0.218750   0.156250 0
  0.156250   0.406250 0
  0.593750   0.968750 0
  0.093750   0.718750 0
  0.031250   0.968750 0
  0.656250   0.718750 0
  0.156250   0.468750 0
  0.437500   0.906250 0
  0.625000   0.156250 0
  0.718750   0.812500 0
  0.218750   0.562500 0
  0.781250   0.562500 0
  0.281250   0.312500 0
  0.156250   0.812500 0
  0.062500   0.656250 0
  0.000000   0.906250 0
  0.187500   0.156250 0
  0.125000   0.406250 0
  0.562500   0.968750 0
  0.062500   0.718750 0
  0.000000   0.968750 0
  0.625000   0.718750 0
  0.125000   0.468750 0
  0.406250   0.968750 0
  0.968750   0.968750 0
  0.468750   0.718750 0
  0.531250   0.468750 0
  0.593750   0.218750 0
  0.406250   0.906250 0
  0.468750   0.656250 0
  0.593750   0.156250 0
  0.687500   0.781250 0
  0.187500   0.531250 0
  0.750000   0.531250 0
  0.250000   0.281250 0
  0.125000   0.781250 0
  0.781250   0.906250 0
  0.281250   0.656250 0
  0.218750   0.906250 0
  0.843750   0.656250 0
  0.343750   0.406250 0
  0.750000   0.906250 0
  0.250000   0.656250 0
  0.187500   0.906250 0
  0.812500   0.656250 0
  0.312500   0.406250 0
  0.875000   0.406250 0
  0.375000   0.156250 0
  0.812500   0.968750 0
  0.312500   0.718750 0
  0.250000   0.968750 0
  0.875000   0.718750 0
  0.375000   0.468750 0
  0.781250   0.937500 0
  0.281250   0.687500 0
  0.218750   0.937500 0
  0.843750   0.687500 0
  0.343750   0.437500 0
  0.718750   0.875000 0
  0.218750   0.625000 0
  0.156250   0.875000 0
  0.781250   0.625000 0
  0.281250   0.375000 0
  0.750000   0.937500 0
  0.250000   0.687500 0
  0.187500   0.937500 0
  0.875000   0.437500 0
  0.375000   0.187500 0
  0.812500   0.687500 0
  0.312500   0.437500 0
  0.687500   0.875000 0
  0.187500   0.625000 0
  0.750000   0.625000 0
  0.250000   0.375000 0
  0.125000   0.875000 0
  0.812500   1.000000 0
  0.312500   0.750000 0
  0.250000   1.000000 0
  0.875000   0.750000 0
  0.375000   0.500000 0
  0.562500   1.000000 0
  0.062500   0.750000 0
  0.000000   1.000000 0
  0.625000   0.750000 0
  0.125000   0.500000 0
  0.406250   1.000000 0
  0.968750   1.000000 0
  0.468750   0.750000 0
  0.656250   0.000000 0
  0.531250   0.500000 0
  0.593750   0.250000 0
  0.406250   0.937500 0
  0.468750   0.687500 0
  0.593750   0.187500 0
  0.687500   0.812500 0
  0.187500   0.562500 0
  0.750000   0.562500 0
  0.250000   0.312500 0
  0.125000   0.812500 0
  0.437500   0.843750 0
  0.625000   0.093750 0
  0.093750   0.593750 0
  0.156250   0.343750 0
  0.218750   0.093750 0
  0.031250   0.843750 0
  0.281250   0.937500 0
  0.843750   0.937500 0
  0.343750   0.687500 0
  0.906250   0.687500 0
  0.406250   0.437500 0
  0.156250   0.968750 0
  0.218750   0.718750 0
  0.281250   0.468750 0
  0.343750   0.218750 0
  0.156250   1.000000 0
  0.406250   0.000000 0
  0.281250   0.500000 0
  0.343750   0.250000 0
  0.218750   0.750000 0
  0.187500   0.968750 0
  0.250000   0.718750 0
  0.375000   0.218750 0
  0.312500   0.468750 0
  0.187500   1.000000 0
  0.312500   0.500000 0
  0.375000   0.250000 0
  0.437500   0.000000 0
  0.250000   0.750000 0
  0.031250   0.781250 0
  0.656250   0.531250 0
  0.156250   0.281250 0
  0.593750   0.781250 0
  0.093750   0.531250 0
  0.000000   0.781250 0
  0.625000   0.531250 0
  0.125000   0.281250 0
  0.562500   0.781250 0
  0.062500   0.531250 0
  0.781250   0.968750 0
  0.281250   0.718750 0
  0.218750   0.968750 0
  0.843750   0.718750 0
  0.343750   0.468750 0
  0.281250   0.968750 0
  0.843750   0.968750 0
  0.343750   0.718750 0
  0.906250   0.718750 0
  0.406250   0.468750 0
  0.281250   1.000000 0
  0.906250   0.750000 0
  0.406250   0.500000 0
  0.843750   1.000000 0
  0.343750   0.750000 0
  0.531250   0.000000 0
  0.718750   0.843750 0
  0.218750   0.593750 0
  0.156250   0.843750 0
  0.781250   0.593750 0
  0.281250   0.343750 0
  0.687500   0.843750 0
  0.187500   0.593750 0
  0.750000   0.593750 0
  0.250000   0.343750 0
  0.125000   0.843750 0
  0.218750   0.875000 0
  0.843750   0.625000 0
  0.343750   0.375000 0
  0.781250   0.875000 0
  0.281250   0.625000 0
  0.156250   0.906250 0
  0.781250   0.656250 0
  0.281250   0.406250 0
  0.718750   0.906250 0
  0.218750   0.656250 0
  0.031250   1.000000 0
  0.656250   0.750000 0
  0.156250   0.500000 0
  0.593750   1.000000 0
  0.093750   0.750000 0
  0.218750   1.000000 0
  0.343750   0.500000 0
  0.468750   0.000000 0
  0.406250   0.250000 0
  0.281250   0.750000 0
  0.593750   0.406250 0
  0.093750   0.156250 0
  0.531250   0.656250 0
  0.031250   0.406250 0
[...]
CELL_DATA 1024
VECTORS vector_value float
-0.000671752 -0.000468767 0
-0.00153431 -0.000879344 0
-0.000370792 -0.00362024 0
0.150232 -0.210219 0
0.0564223 -0.206867 0
0.0495474 -0.0598944 0
-0.486301 -0.360532 0
-0.200175 -1.70977 0
-0.300322 -1.85552 0
-0.0426009 -0.0991524 0
-0.0435035 -0.0689571 0
-0.0148873 -1.13197 0
-0.606535 -1.43141 0
-3.93631 -16.5034 0
-1.67316 -27.0152 0
-5.3439 -22.9878 0
-0.0309481 -1.25873 0
-2.58646 -5.64382 0
-3.93339 -5.23896 0
-5.25985 -11.983 0
-6.75691 -10.0914 0
-4.57705 -11.4006 0
-3.18774 -1.86975 0
-4.97038 -6.46114 0
0.329843 -0.276544 0
0.101775 -0.168132 0
0.0118609 -0.0305935 0
0.108478 -0.17875 0
0.0696389 -0.0973925 0
1.48695 -18.7271 0
-9.18081e-06 -8.32172e-05 0
-0.000593676 -0.000398183 0
0.00025536 -0.00144987 0
5.89597e-05 -0.000644871 0
-0.150243 -1.40786 0
-0.889061 -4.30377 0
-3.55829 -23.4863 0
-2.91474 -9.88199 0
0.129819 -1.1921 0
0.0370996 -0.0810384 0
-0.420281 -1.50261 0
-0.881225 -3.36523 0
-0.000955812 -0.0143133 0
-2.3864 -2.88602 0
-0.305046 -0.379334 0
-0.0473041 -0.123485 0
0.0383122 -0.232574 0
-0.130831 -0.0794506 0
-0.486272 -0.810935 0
0.0503271 -0.0897452 0
0.140772 -3.23053 0
0.160838 -0.129654 0
0.000151128 -0.0173807 0
0.047067 -0.233426 0
0.024958 -0.0364191 0
0.133573 -0.214057 0
0.0821315 -0.225694 0
-1.68704 -6.45288 0
-1.62429 -1.70759 0
-0.00298106 -0.00888292 0
-0.227991 -0.0970561 0
-0.0234038 -0.00696704 0
0.283615 -0.236947 0
0.0336969 -0.0333776 0
-0.0798447 -0.0473531 0
-0.000158927 -0.000165844 0
-0.00117724 -0.00195718 0
-1.10444 -0.605158 0
0.0137285 -0.262088 0
-0.471485 -0.742375 0
0.0621003 -0.183259 0
0.114373 -0.364014 0
-0.00736342 -0.00737232 0
5.11487e-05 -0.000546915 0
0.00199968 -0.00353587 0
0.0325977 -0.035045 0
0.452448 -8.59052 0
-2.01869 -12.5443 0
0.0259562 -0.0138585 0
-0.00209943 -0.00125259 0
-0.000175264 -0.000251626 0
-0.00060731 -0.00196338 0
-0.00110285 -0.0172174 0
-0.000641464 -0.00910708 0
0.0678535 -0.0764143 0
0.0114145 -0.0142781 0
-0.000210365 -0.000235417 0
-0.000414007 -0.000497485 0
0.0023606 -0.0107688 0
0.161242 -0.365712 0
0.032364 -0.128239 0
-0.00409502 -0.00618673 0
-0.00107331 -0.00671645 0
0.00721115 -0.00240017 0
-0.000483715 -0.00202983 0
-0.00182199 -0.00864587 0
-0.000932348 -0.00282529 0
-0.000237262 -0.00132648 0
-0.00166817 -0.00424431 0
-0.000479475 -0.00787488 0
0.0683763 -0.0924441 0
0.00223153 -0.324659 0
-1.86496 -1.04683 0
0.000391491 -0.000597156 0
9.79044e-05 -7.90756e-05 0
0.00516608 -0.00723886 0
0.0468913 -0.171041 0
0.00376444 -0.159437 0
0.115662 -0.365515 0
-0.00214033 -0.00547959 0
0.000432498 -0.00150956 0
-0.00149456 -0.0033817 0
-0.0860586 -8.14533 0
-0.000254358 -0.000174722 0
-0.00466211 -0.00568397 0
1.20486 -8.08615 0
0.0270966 -0.0328664 0
-0.000626941 -0.000881836 0
0.0289131 -0.0333159 0
-0.00474478 -0.00414305 0
0.0547665 -0.264634 0
-3.81033 -5.58004 0
-6.45692 -18.4254 0
-0.076505 -0.0200742 0
2.72799e-06 -0.000178236 0
0.00222572 -0.00398212 0
-2.9927e-05 -0.000118511 0
-0.0171642 -0.050918 0
0.000726053 -0.000453276 0
-2.14634e-06 -3.95515e-05 0
0.0019509 -0.00221409 0
-0.00198118 -0.177095 0
0.225883 -0.417499 0
0.00114462 -0.028857 0
0.00986338 -0.0928127 0
-2.07602e-06 -8.46472e-06 0
-4.72648e-05 -4.17679e-05 0
-0.000214654 -6.39408e-05 0
0.187603 -0.186725 0
0.0605082 -0.0588281 0
3.95156 -14.716 0
-0.00578011 -0.00171576 0
-3.20175 -6.524 0
-0.0122193 -0.0190206 0
-0.0115431 -0.00719585 0
0.00147151 -0.0012988 0
-0.000240643 -7.00223e-05 0
-0.00423851 -0.00142828 0
-0.00025394 -0.00240933 0
0.0403732 -0.157665 0
0.000403457 -0.00103995 0
0.0126555 -0.00926532 0
-5.0081e-05 -0.000284942 0
-0.00251951 -0.0102406 0
-3.95035 -4.03785 0
-5.80845 -8.77179 0
-0.486082 -20.5841 0
-0.00605357 -0.00730368 0
0.097465 -0.0706582 0
0.00125655 -0.0139725 0
0.0700072 -0.233918 0
0.00965803 -0.079619 0
0.052176 -0.0667098 0
0.269599 -0.207556 0
0.97876 -21.02 0
-0.00146106 -0.00543086 0
-4.11678 -5.21918 0
-0.0568577 -0.00915982 0
-0.0842638 -0.0736398 0
0.076555 -0.35107 0
0.0244075 -0.138488 0
2.51797e-05 -0.00880731 0
-0.0012135 -0.0181932 0
0.0035742 -0.00438652 0
0.00892809 -0.0187001 0
0.0016403 -0.00328362 0
0.0233808 -0.0561941 0
0.00142478 -0.0181863 0
-0.00330333 -0.00524052 0
0.00219778 -0.0104297 0
0.000309672 -0.00531237 0
0.00941573 -0.0185094 0
0.0161643 -0.128332 0
0.00139822 -0.0241451 0
0.00359646 -0.0127549 0
0.00109761 -0.104739 0
0.00708963 -0.0316228 0
0.00863128 -0.0309829 0
0.0574878 -0.0808545 0
0.00145648 -0.00565901 0
-2.50232e-05 -4.10345e-05 0
-0.000197287 -0.000924997 0
2.94883e-05 -6.48592e-05 0
-0.810998 -0.629127 0
-0.00944633 -0.0362563 0
-2.19388 -3.23793 0
-4.41125e-06 -7.72632e-06 0
-3.31872e-05 -7.28621e-05 0
-1.66437e-06 -1.60368e-05 0
-0.171055 -0.453513 0
0.000776553 -0.00114243 0
0.000130263 -0.000164245 0
3.95279e-06 -3.82006e-05 0
-9.90781e-05 -0.00010901 0
-0.000158352 -0.000262274 0
-3.18627 -10.7895 0
-0.0362837 -0.033605 0
-3.3947 -1.33437 0
-5.89735 -5.89343 0
-1.46159 -9.59285 0
-0.00201992 -0.00601657 0
-3.09491 -1.28547 0
-3.19036 -2.24841 0
-0.144989 -0.234384 0
-0.000518799 -0.00061842 0
-0.532537 -1.19153 0
-0.00353092 -0.0035437 0
-2.63285 -2.53552 0
-3.36938 -3.24648 0
-0.00364041 -0.00306314 0
-3.71257 -2.97526 0
0.0107872 -0.0147755 0
0.304078 -0.45282 0
0.0109308 -0.0255419 0
-0.00262849 -0.00185402 0
-0.00270468 -0.00122308 0
-0.731185 -13.8013 0
4.54304 -13.4373 0
0.174458 -0.208265 0
-0.000894789 -0.000187391 0
0.850285 -2.12385 0
0.0247296 -3.50168 0
0.194003 -0.221919 0
-0.00432301 -0.00171837 0
0.890894 -3.04198 0
0.417085 -0.857175 0
0.072917 -0.0690657 0
-0.0115414 -0.00727542 0
0.00026217 -0.00162821 0
0.147485 -0.0281852 0
0.280186 -0.224554 0
0.738319 -8.50559 0
0.00440706 -0.00501949 0
0.00760943 -0.011879 0
0.00085854 -0.00134468 0
0.0769901 -0.120377 0
0.181787 -21.6381 0
0.0135151 -0.0248869 0
-0.152365 -22.0887 0
0.00272872 -0.0119193 0
0.0183511 -0.0291534 0
0.0437634 -0.0557873 0
-0.000140648 -0.000218036 0
-2.67603e-05 -4.59168e-05 0
-0.000908746 -0.000217144 0
-0.00169113 -0.000653081 0
0.0608474 -1.30936 0
-3.24325 -2.60177 0
0.130953 -0.781611 0
-0.0103118 -0.69753 0
-0.0291472 -0.762064 0
0.0960865 -1.06082 0
-0.448834 -0.0735932 0
-0.369682 0.0374703 0
-0.310254 -0.105717 0
1.21124 -1.22531 0
0.532177 -0.711025 0
0.224012 -1.03849 0
0.328979 -2.09022 0
-7.92301 -5.21834 0
-4.99905 -4.96706 0
1.09059 -0.991963 0
1.10037 -1.87717 0
0.977989 -1.56972 0
0.296903 -0.442661 0
0.445174 -1.41026 0
0.722037 -0.832123 0
0.417636 -0.498173 0
0.0869791 -0.112951 0
0.544653 -0.457771 0
0.0639045 -2.72135 0
0.370807 -2.1814 0
-0.332731 -0.475267 0
-2.22216 -0.72257 0
0.312504 -1.27556 0
0.889885 -4.72988 0
-3.2575 0.448776 0
-1.02142 -1.78709 0
-5.20722 -1.93849 0
0.766191 -5.41648 0
-4.13419 -0.947559 0
0.303135 -0.917287 0
-2.35189 0.0594377 0
1.04759 -2.27821 0
-0.303492 -1.00392 0
-3.31232 -3.0353 0
0.439441 -1.38346 0
-7.36462 -5.83598 0
0.178902 -0.307148 0
0.206051 -1.16291 0
0.228874 -0.0751709 0
1.04281 -2.3369 0
0.265973 -0.830808 0
-0.0598064 -0.161187 0
0.437853 -2.63096 0
0.0849363 -0.874273 0
0.317938 -0.372396 0
-0.00697901 -0.230513 0
-0.0608628 -0.821351 0
-0.0122018 -0.0499815 0
0.0280512 -0.179217 0
-0.45994 -0.271996 0
0.0899514 -1.63963 0
0.650265 -0.460715 0
0.192895 -0.635141 0
-0.0105468 -0.01848 0
-10.8925 -5.17461 0
-1.18633 -0.526295 0
0.528605 -0.362122 0
-0.695166 -0.255373 0
-5.43246 -2.99634 0
-0.000559823 -0.00051848 0
-0.111601 -0.411256 0
0.0534765 -1.14209 0
0.13583 -1.13504 0
-0.0169115 -0.0244997 0
-1.06589 -0.588904 0
-13.2028 -4.01395 0
-0.209507 -1.35345 0
0.0131069 -1.1547 0
-1.73652 -0.563008 0
-10.8394 -12.1568 0
-0.182215 -0.9869 0
0.00253839 -0.590471 0
-0.819324 -0.34296 0
-17.7551 -4.57273 0
-0.0305541 -0.302952 0
0.0659705 -0.353815 0
-0.535271 -0.358263 0
0.157948 -0.260734 0
-0.114954 -0.255066 0
-0.0476571 -0.231403 0
-0.00257532 -0.276996 0
-0.611176 -0.696693 0
0.123338 -0.465428 0
-0.66315 -0.788426 0
0.0754124 -3.70646 0
-0.173498 -0.110254 0
0.207556 -0.553753 0
-5.07693 -5.55839 0
0.0329192 -0.046582 0
0.0276975 -0.0470483 0
0.777583 -4.08011 0
0.116567 -1.02563 0
0.240285 -0.965672 0
-0.101381 -0.00898962 0
0.20458 -0.532762 0
-0.1445 -0.902586 0
-2.00405 -1.41546 0
0.273282 -0.508596 0
-2.18951 -1.81112 0
-5.39781 -5.2978 0
-0.571433 -0.0590481 0
0.00978989 -0.0154728 0
0.0118102 -0.550553 0
-2.68827 -7.16007 0
-5.38888 -3.80365 0
0.00632384 -0.00496996 0
-0.0612453 -1.18433 0
1.34759 -4.52118 0
-0.252604 -2.03329 0
-0.229303 -0.497566 0
-2.4249 -1.9231 0
0.0146848 -0.0151583 0
-0.0983872 -0.0135835 0
0.123399 -1.37783 0
-0.0454253 -1.14703 0
-6.61184 -16.3577 0
-0.372252 -1.97048 0
0.129335 -0.89729 0
-0.219814 -1.11321 0
-0.2012 -0.247006 0
-1.52341 -0.600848 0
0.0661795 -0.300949 0
0.621262 -1.33943 0
0.0896997 -0.125489 0
-0.247052 -1.96539 0
-0.600807 -1.27948 0
-0.74611 -1.63385 0
-0.972529 -3.77125 0
-0.0016647 -0.00126264 0
-0.166798 -1.42988 0
-1.62618 -11.7906 0
-0.128589 -0.395922 0
0.142192 -0.505033 0
0.121684 -4.4464 0
-0.218944 -0.155895 0
0.433291 -0.816741 0
0.535321 -0.96325 0
-4.30891 -1.73508 0
-4.75325 -5.12322 0
-1.78651 -3.81642 0
0.0554541 -0.3482 0
0.0167303 -0.0288767 0
0.248497 -0.289661 0
-6.06545 -1.51609 0
-1.51922 -2.78789 0
-0.864336 -1.97202 0
-3.1131 -4.67913 0
0.15622 -1.01435 0
-0.00235371 -0.00504802 0
0.00821611 -0.016055 0
-0.061719 -1.09938 0
-0.0242422 -0.0623879 0
-4.00451 -0.20458 0
-0.0274196 -0.497634 0
0.0461394 -0.144146 0
-3.76149 -0.371504 0
-0.458731 -0.783162 0
-0.901828 0.0650755 0
-2.55614 -0.461151 0
-0.00254489 -0.0592607 0
-0.412499 -0.804413 0
-0.066673 -0.0815784 0
-0.00750164 -0.0287114 0
-0.14246 -0.231361 0
-3.93778 -0.594131 0
-3.59998 -0.299295 0
-0.855488 -0.480051 0
-8.52075 -3.74404 0
0.609983 -1.23472 0
-4.27592 -8.21121 0
-1.57393 -0.250625 0
0.0292453 -0.055742 0
-0.0283932 -0.144679 0
-4.6641 -0.387458 0
-2.65934 0.115181 0
-1.35237 -0.46473 0
-5.49291 0.136703 0
-0.0857687 -0.563941 0
-1.41382 -0.369437 0
-4.02865 -0.10144 0
-0.0447075 -0.229515 0
0.0373101 -0.45083 0
-2.3444 -0.494688 0
1.35261 -1.9216 0
0.36645 -1.25482 0
0.606211 -0.739054 0
0.000658824 -0.000823943 0
0.304166 -1.20608 0
0.827775 -2.88119 0
0.699686 -0.704703 0
-0.00284902 -0.0137247 0
0.818635 -1.37294 0
-0.0886573 -0.502215 0
0.00729885 -0.00836546 0
-0.0264074 -1.11635 0
0.753525 -1.69163 0
-1.58119 -1.72409 0
0.00872669 -0.0054842 0
1.18247 -4.48308 0
-0.226844 -1.03389 0
0.798626 -2.15197 0
-0.990383 -2.96891 0
-1.03504 -3.01569 0
-0.647584 -1.58379 0
-0.259909 -1.2465 0
0.0172442 -1.22524 0
-0.0124016 -0.0387312 0
0.197982 -0.261675 0
-0.0193218 -1.35679 0
0.00237443 -0.00456584 0
0.0287311 -0.055394 0
-0.34577 -1.13467 0
-0.541783 -1.49548 0
-0.571133 -3.56371 0
-3.36691 0.335686 0
-2.23697 -0.274064 0
0.109419 -0.257204 0
0.252487 -1.36615 0
0.0368764 -1.22834 0
0.238173 -0.628022 0
-0.285015 -0.237486 0
-0.0168849 -0.0220333 0
-1.06523 -0.610955 0
-0.0165099 -0.0232016 0
-0.0119679 -0.0475218 0
-0.579442 -0.432409 0
0.0402115 -0.168287 0
-0.117337 -0.148779 0
-0.00760611 -0.00946895 0
-0.204517 -0.190099 0
-0.904759 -0.376936 0
0.333804 -0.478357 0
-0.000958377 -0.0048125 0
-0.0102453 -0.0128467 0
-0.021219 -0.112634 0
-0.0143327 -0.0285128 0
-0.0177026 -0.025849 0
0.279778 -0.465942 0
-0.17917 -0.175933 0
-0.00129065 -0.057039 0
0.606209 -0.664141 0
-0.0293726 -0.0311562 0
-0.374027 -0.34963 0
-0.39885 -0.414141 0
0.714951 -1.13557 0
0.0487572 -0.0534614 0
0.302873 -0.589224 0
0.132303 -0.767011 0
-0.17482 -1.2522 0
0.491567 -1.05536 0
-0.00124223 -0.00264882 0
-3.54139e-06 -5.79631e-06 0
-2.62923e-07 -1.19963e-06 0
-3.56323e-07 -9.9222e-06 0
9.87873e-06 -3.05568e-05 0
0.00664541 -0.148421 0
-0.0447992 -0.119286 0
-0.0571769 -0.17424 0
-5.15023e-06 -2.43742e-06 0
-0.00105616 -0.00102688 0
-0.00137252 -0.0009592 0
0.0740093 -0.045461 0
-0.00311763 -0.00144242 0
-0.00206312 -0.00185478 0
-3.5435e-07 -3.72234e-06 0
-6.59988e-06 -8.58512e-06 0
-3.63686e-05 -4.50551e-05 0
-3.57591e-06 -1.22346e-05 0
-0.013573 -0.0354682 0
3.2774e-07 -2.41802e-06 0
-2.26437e-06 -4.58908e-06 0
-0.000792265 -0.00376777 0
-0.00163594 -0.00328075 0
-0.00181423 -0.00218735 0
-0.000412415 -0.0010469 0
-0.160212 -0.139914 0
-0.0329872 -0.0262887 0
-0.0199408 0.0148675 0
-0.043583 -0.0306282 0
-4.26815e-05 -9.96181e-06 0
-1.5558e-05 -2.51338e-06 0
-0.000142564 -0.000221892 0
-3.39119e-06 -8.99089e-06 0
-0.000150065 -6.88437e-05 0
0.113162 -0.0267715 0
-0.00213839 -0.000561469 0
-0.000409217 -0.000206226 0
0.198899 -0.0536066 0
-0.000210562 -9.76188e-05 0
-0.000200182 4.93128e-05 0
-0.000762155 -0.000482703 0
-0.000787355 -0.00146512 0
-0.00300983 -0.00133289 0
-0.000827947 -0.00181336 0
-4.08755e-05 -3.83284e-05 0
0.00102052 -0.0102829 0
-0.00174532 -0.00586922 0
-0.000195523 -0.000409711 0
3.39769e-05 -0.00015977 0
-0.000452672 -0.00300661 0
-0.000157346 -0.00543142 0
-3.31263e-05 1.76159e-05 0
-0.000858954 -0.00157495 0
-0.000145063 -0.000240682 0
-0.00207279 0.00260462 0
0.000386088 -0.000424004 0
0.10271 -0.118285 0
-0.00122616 -0.0143164 0
-0.00947242 -0.0133712 0
0.0715706 -0.73639 0
-7.96961e-05 -2.84843e-05 0
0.00733685 -0.0298624 0
0.000711501 -0.025852 0
0.0190632 -0.019614 0
-0.0362326 -0.625131 0
-3.57108e-05 -9.42532e-06 0
-5.9819e-06 -6.47551e-06 0
-0.000160942 0.000180794 0
-0.00167728 -0.00883742 0
-0.00141258 -0.00461574 0
0.0581999 -0.0434722 0
0.0622197 -0.141202 0
0.0625267 -0.147252 0
-0.000129149 -2.17272e-05 0
-7.35697e-06 -1.4752e-05 0
0.030842 -0.0585344 0
0.151539 -0.304163 0
-0.0200453 -0.254806 0
-2.43743e-06 -5.862e-06 0
-1.96446e-05 -2.69474e-05 0
-3.44357e-06 -4.78371e-06 0
-1.48761e-05 6.21362e-06 0
0.217524 -0.05214 0
0.00809715 -0.00802779 0
0.113892 -0.0566445 0
0.000128512 -0.000544328 0
-0.000418745 0.000807899 0
-0.000103675 -0.00028334 0
-2.24877e-05 -2.91306e-05 0
0.000740366 -0.00477684 0
-0.000257106 -0.00366856 0
-4.07006e-07 -3.88497e-06 0
0.00127176 -0.00089753 0
-0.00382644 -0.00242288 0
-0.0231229 -0.146324 0
-1.66382e-05 -1.77519e-05 0
-6.143e-06 -9.81682e-06 0
-3.19427e-06 -5.30099e-06 0
-2.83696e-06 -6.93553e-06 0
-2.01903e-05 2.19564e-05 0
0.184578 -0.0544979 0
0.104391 -0.122997 0
0.000250892 -0.000575066 0
0.116489 -0.0995289 0
-0.000332086 -0.000174143 0
-0.00232603 -0.00177209 0
0.270389 -0.123806 0
-1.63373e-05 -9.1817e-06 0
-0.00528484 -0.00384803 0
-0.0227232 -0.0492332 0
-1.49336e-06 -4.47237e-06 0
-9.73592e-08 -1.24491e-05 0
-0.000321864 -0.00242793 0
-0.0320759 -0.786757 0
-4.13209e-06 -5.93655e-06 0
0.0212083 -0.140085 0
0.0183811 -0.0195426 0
0.133812 -0.0384586 0
-0.000805974 -0.00760824 0
0.00809998 -0.0141138 0
0.000372894 -0.000742777 0
0.0115835 -0.015357 0
0.095522 -0.0433497 0
0.0216318 -0.0122385 0
0.00527853 -0.00813985 0
-0.00173856 -0.00163334 0
-0.00221822 -0.00115635 0
-0.000146267 -0.000228365 0
-0.00412539 -0.00594121 0
0.0716421 -0.28553 0
0.00682941 -0.00494382 0
-4.49794e-07 -2.00324e-06 0
0.116817 -0.203788 0
-0.0251334 -0.711116 0
-7.12009e-06 1.92967e-06 0
-1.19022e-05 -5.72185e-06 0
0.0295265 -0.0354139 0
-0.00576995 -0.00438906 0
-0.00127579 -0.000907638 0
0.00719187 -0.00333724 0
0.0288588 -0.0722453 0
-0.000506448 -0.00143811 0
0.0726178 -0.0227125 0
0.0362772 -0.0396682 0
-4.99655e-05 -0.000116119 0
-0.000379748 -0.000743446 0
0.0383662 -0.0144833 0
0.0701553 -0.221942 0
-2.98692e-06 -5.07758e-06 0
-2.84684e-05 -3.62286e-05 0
-0.000315447 -0.00026228 0
0.105107 -0.0262381 0
-0.00128019 -0.000619744 0
-0.00240562 -0.00297515 0
-0.000164525 -0.000164078 0
0.273464 -0.277646 0
-2.06502e-06 -1.03779e-05 0
0.152961 -0.0523964 0
-9.08774e-07 -8.77165e-06 0
0.200218 -0.0455022 0
5.91975e-05 -9.13104e-05 0
0.18508 -0.111377 0
2.68456e-06 -1.06117e-05 0
-0.000883981 0.000595421 0
-0.00428158 0.000738086 0
-0.0069064 0.00584019 0
1.22926e-05 -5.66062e-05 0
0.165235 -0.0912735 0
0.000121043 -0.000296187 0
0.0505395 -0.0671039 0
-0.000108959 -0.000288774 0
-0.000717166 -0.00301534 0
-9.5721e-05 -0.000175769 0
0.152198 -0.184387 0
0.0821111 -0.147229 0
-0.00378635 -0.00288807 0
3.52122e-05 -3.60866e-05 0
0.0899299 -0.0436712 0
0.151528 -0.285608 0
0.00149566 -0.00668998 0
-0.00183974 -0.00406255 0
-1.81664e-07 -2.3541e-06 0
0.183756 -0.092976 0
-0.000104714 -0.000557625 0
-0.00204622 -0.00153198 0
1.17672e-05 -2.70733e-05 0
0.011051 -0.0138719 0
0.207048 -0.110981 0
-0.00109571 -0.000878152 0
-0.0044675 -0.00278767 0
0.000303713 -0.000309382 0
-0.00559248 -0.00316815 0
-0.00040452 -0.000280389 0
4.78185e-05 -9.58782e-05 0
-0.0051277 -0.00303854 0
0.000623351 -0.000878805 0
-0.00266456 -0.00182334 0
-0.000368419 -0.000242806 0
0.00571345 -0.00965651 0
-0.00124419 -0.00181904 0
-0.000120823 -8.18332e-05 0
0.000260076 -0.000538932 0
0.00162458 -0.00898106 0
0.000227699 -0.00615858 0
0.0102922 -0.035599 0
0.00394257 -0.0552061 0
-4.50759e-07 -2.24321e-06 0
0.010075 -0.807405 0
-5.95533e-08 -3.28639e-06 0
-0.00328678 -0.779628 0
-3.37431e-07 -1.8861e-06 0
1.09346e-07 -3.66436e-06 0
-0.00467161 -0.0455099 0
0.000255661 -0.000309233 0
0.000564535 -0.00048462 0
0.00376777 -0.00340338 0
0.00086064 -0.00107428 0
1.84088e-05 -2.38944e-05 0
0.0433966 -0.687943 0
0.0138226 -0.797917 0
-0.00650753 -0.0953296 0
0.00354799 -0.0844659 0
0.0012692 -0.00277889 0
0.0530075 -0.126626 0
-0.00770725 -0.0522615 0
2.635e-05 -4.42527e-05 0
0.0332701 -0.74748 0
-0.0146812 -0.815295 0
5.00996e-07 -4.00068e-06 0
0.180772 -0.542876 0
0.0589373 -0.0243061 0
0.0296524 -0.0387147 0
0.197033 -0.0247602 0
0.000617715 -0.0426652 0
0.218145 -0.0462405 0
-0.0172978 -0.0509262 0
-1.40689e-06 -3.21141e-06 0
-2.65148e-05 -3.02918e-05 0
-4.70028e-06 -7.27933e-06 0
0.0172429 -0.0255146 0
-2.86525e-05 -2.65083e-05 0
0.00424708 -0.00539887 0
-0.00169568 -0.00122101 0
-6.89197e-05 -4.16061e-05 0
0.0518313 -0.0702584 0
-1.48728e-05 -1.3765e-05 0
0.166657 -0.229305 0
0.000337351 -0.000680665 0
0.00123728 -0.0128746 0
0.0077639 -0.0153943 0
0.00030043 -0.00212741 0
-0.0810323 -0.111813 0
-0.195711 -0.153008 0
0.0437338 -0.0295162 0
-0.0198118 -0.0820468 0
-0.0757529 -0.324949 0
7.71276e-06 -4.63608e-05 0
-0.730595 -0.587975 0
-0.740301 -1.07142 0
-0.584131 -0.0582023 0
-0.333845 -0.0663583 0
-0.157094 -0.310586 0
0.0601553 -0.32046 0
-0.828203 0.047867 0
-0.517042 -0.719214 0
-0.237068 -0.40468 0
-0.215811 -1.47417 0
-0.010844 0.0133654 0
1.21977 -0.489434 0
0.158974 -0.0753107 0
0.0818583 -0.0869253 0
0.329989 -0.421583 0
-0.113102 0.0644269 0
-0.260906 0.0668011 0
-0.430556 0.0721879 0
-0.0888397 -0.00493467 0
-0.223911 -2.94039 0
0.644663 -2.35517 0
-2.34021 -2.47392 0
0.484377 -1.06206 0
-2.9715 -2.49339 0
0.083079 -0.347001 0
0.0493526 -0.229694 0
-0.146855 -0.184594 0
0.243328 -1.72128 0
-1.36427 -4.50368 0
0.140851 -1.36485 0
-3.78198 -3.30674 0
-0.107518 -0.609191 0
-1.90539 -1.50828 0
1.07675 -1.10939 0
-0.130095 -0.348081 0
0.541743 -2.23535 0
-0.402251 -1.11472 0
-2.54177 -2.53665 0
0.274655 -1.07046 0
-0.0104924 -0.0693121 0
0.325955 -2.60298 0
0.208624 -1.57623 0
-1.33058 -0.703057 0
0.124678 -1.13299 0
0.0173449 -0.0641495 0
1.35116 -1.49252 0
-3.75065 -2.2518 0
-2.45555 -1.63349 0
-0.0163972 -0.692364 0
-2.99248 -2.87924 0
-0.983694 -4.54061 0
-0.651532 -0.988708 0
-0.282401 -0.384314 0
-0.0118135 0.00668768 0
-0.814442 -0.795543 0
-0.570395 -1.07686 0
-0.371228 -0.447846 0
-0.000599209 0.000293581 0
-0.656841 -0.731757 0
-0.607778 -0.855503 0
0.391334 -1.47958 0
-0.559822 -0.554539 0
-0.0725778 -0.852746 0
-0.75455 -1.23327 0
1.34385 -3.10064 0
-2.67788 -1.99983 0
0.00410348 -0.0125067 0
0.00487923 -0.0147056 0
1.22236e-05 -5.35703e-05 0
-1.13247e-06 -4.22311e-05 0
-0.591529 -1.14876 0
0.0412594 -1.73781 0
-3.31765 -2.62254 0
0.000599779 -0.00144582 0
-3.2376 -1.05288 0
0.0173085 -0.0288361 0
3.99477e-06 -2.06416e-05 0
1.1968e-06 -7.87945e-06 0
-0.123144 -0.407114 0
-2.26701 -1.77631 0
-0.726351 -0.60123 0
0.00714792 -0.0287991 0
-0.342464 -0.528312 0
-3.75107 -2.70223 0
-1.12693 -1.96491 0
0.00629943 -0.0110399 0
0.0668441 -2.43561 0
-2.92152 -0.785779 0
0.0938545 -0.320722 0
-4.27072 -2.26882 0
-0.877857 -0.816354 0
-0.493474 -0.873428 0
1.40145 -0.840493 0