# vtk DataFile Version 2.0
Unstructured Grid by M++
ASCII
DATASET UNSTRUCTURED_GRID
POINTS 289 float
  0.562500   1.000000 0
  0.562500   0.625000 0
  0.625000   1.000000 0
  0.562500   0.937500 0
  0.562500   0.562500 0
  0.625000   0.937500 0
  0.562500   0.875000 0
  0.625000   0.750000 0
  0.625000   0.625000 0
  0.562500   0.812500 0
  0.562500   0.750000 0
  0.562500   0.687500 0
  0.625000   0.875000 0
  0.625000   0.812500 0
  0.625000   0.687500 0
  0.687500   0.125000 0
  0.875000   0.062500 0
  0.625000   0.125000 0
  0.625000   0.187500 0
  0.625000   0.250000 0
  0.812500   0.187500 0
  1.000000   0.125000 0
  0.687500   0.187500 0
  0.750000   0.125000 0
  0.937500   0.062500 0
  0.937500   0.125000 0
  0.750000   0.187500 0
  0.812500   0.062500 0
  0.812500   0.125000 0
  0.875000   0.687500 0
  0.187500   0.250000 0
  0.437500   0.250000 0
  0.375000   0.187500 0
  0.812500   0.625000 0
  0.125000   0.187500 0
  0.937500   0.750000 0
  0.250000   0.312500 0
  0.500000   0.312500 0
  0.625000   0.062500 0
  0.437500   0.500000 0
  0.375000   0.125000 0
  0.437500   0.187500 0
  0.437500   0.437500 0
  0.437500   0.375000 0
  0.875000   0.875000 0
  0.187500   0.375000 0
  0.687500   0.562500 0
  0.687500   0.625000 0
  0.000000   0.125000 0
  0.937500   0.625000 0
  0.250000   0.125000 0
  0.375000   0.062500 0
  0.375000   0.000000 0
  0.812500   0.500000 0
  0.125000   0.000000 0
  0.937500   0.937500 0
  0.250000   0.437500 0
  0.687500   0.875000 0
  0.687500   0.937500 0
  0.000000   0.437500 0
  0.500000   0.500000 0
  0.500000   0.437500 0
  0.750000   0.937500 0
  0.750000   1.000000 0
  0.062500   0.500000 0
  1.000000   1.000000 0
  0.312500   0.500000 0
  0.875000   0.562500 0
  0.187500   0.062500 0
  0.437500   0.125000 0
  0.437500   0.062500 0
  0.500000   0.375000 0
  0.937500   0.812500 0
  0.937500   0.875000 0
  0.250000   0.375000 0
  0.687500   0.812500 0
  0.000000   0.375000 0
  0.750000   0.562500 0
  0.062500   0.125000 0
  1.000000   0.562500 0
  1.000000   0.625000 0
  0.312500   0.125000 0
  0.562500   0.125000 0
  0.437500   0.000000 0
  0.875000   0.437500 0
  0.875000   0.500000 0
  0.187500   0.000000 0
  0.937500   0.562500 0
  0.937500   0.500000 0
  0.250000   0.062500 0
  0.687500   0.500000 0
  0.000000   0.062500 0
  0.500000   0.062500 0
  1.000000   0.875000 0
  1.000000   0.937500 0
  0.312500   0.437500 0
  0.750000   0.875000 0
  0.062500   0.437500 0
  0.812500   0.937500 0
  0.125000   0.500000 0
  0.375000   0.500000 0
  0.625000   0.562500 0
  0.625000   0.500000 0
  0.437500   0.312500 0
  0.875000   0.812500 0
  0.875000   0.750000 0
  0.187500   0.312500 0
  0.812500   0.687500 0
  0.812500   0.750000 0
  0.125000   0.250000 0
  0.375000   0.250000 0
  1.000000   0.687500 0
  0.312500   0.187500 0
  0.750000   0.687500 0
  0.750000   0.625000 0
  0.062500   0.187500 0
  0.562500   0.250000 0
  0.562500   0.187500 0
  0.375000   1.000000 0
  0.500000   0.562500 0
  0.500000   0.250000 0
  0.750000   0.250000 0
  0.500000   0.125000 0
  0.500000   0.187500 0
  1.000000   0.187500 0
  0.625000   0.375000 0
  0.875000   0.375000 0
  1.000000   0.437500 0
  0.312500   0.000000 0
  0.562500   0.000000 0
  0.812500   0.000000 0
  0.250000   0.687500 0
  0.000000   0.687500 0
  0.500000   1.000000 0
  0.250000   1.000000 0
  0.000000   1.000000 0
  0.437500   0.687500 0
  0.437500   0.625000 0
  0.187500   0.625000 0
  0.687500   0.750000 0
  0.000000   0.312500 0
  0.000000   0.250000 0
  0.375000   0.375000 0
  0.375000   0.312500 0
  0.812500   0.812500 0
  0.125000   0.312500 0
  0.875000   0.625000 0
  0.187500   0.187500 0
  0.187500   0.125000 0
  0.937500   1.000000 0
  0.250000   0.562500 0
  0.250000   0.500000 0
  0.687500   1.000000 0
  0.000000   0.500000 0
  0.687500   0.687500 0
  0.000000   0.187500 0
  0.937500   0.687500 0
  0.250000   0.250000 0
  0.250000   0.187500 0
  0.187500   0.687500 0
  0.000000   0.750000 0
  0.250000   0.750000 0
  0.125000   0.625000 0
  0.750000   0.750000 0
  0.062500   0.250000 0
  0.875000   0.937500 0
  0.187500   0.500000 0
  0.187500   0.437500 0
  0.812500   0.562500 0
  0.125000   0.125000 0
  0.125000   0.062500 0
  0.375000   0.625000 0
  0.375000   0.687500 0
  1.000000   0.750000 0
  0.312500   0.250000 0
  0.312500   0.312500 0
  0.812500   0.312500 0
  0.562500   0.312500 0
  0.375000   0.750000 0
  0.500000   0.625000 0
  0.250000   0.625000 0
  0.312500   0.687500 0
  0.750000   0.812500 0
  0.062500   0.312500 0
  0.062500   0.375000 0
  1.000000   0.812500 0
  0.312500   0.375000 0
  0.562500   0.375000 0
  0.687500   0.437500 0
  0.000000   0.000000 0
  0.500000   0.000000 0
  0.937500   0.437500 0
  0.250000   0.000000 0
  0.375000   0.437500 0
  0.812500   0.875000 0
  0.125000   0.375000 0
  0.125000   0.437500 0
  0.625000   0.437500 0
  1.000000   0.500000 0
  0.312500   0.062500 0
  0.750000   0.500000 0
  0.062500   0.000000 0
  0.062500   0.062500 0
  0.562500   0.062500 0
  0.062500   0.750000 0
  0.312500   0.750000 0
  0.312500   0.625000 0
  0.312500   0.562500 0
  0.062500   0.562500 0
  0.187500   1.000000 0
  0.437500   0.562500 0
  0.875000   1.000000 0
  0.187500   0.562500 0
  0.500000   0.937500 0
  0.250000   0.937500 0
  0.312500   1.000000 0
  0.125000   0.750000 0
  0.125000   0.687500 0
  1.000000   0.000000 0
  0.000000   0.937500 0
  0.000000   0.875000 0
  0.875000   0.125000 0
  0.875000   0.187500 0
  0.062500   0.812500 0
  0.312500   0.812500 0
  0.000000   0.812500 0
  0.000000   0.625000 0
  0.000000   0.562500 0
  0.062500   1.000000 0
  0.062500   0.937500 0
  0.937500   0.187500 0
  0.937500   0.250000 0
  0.062500   0.687500 0
  0.062500   0.625000 0
  0.125000   1.000000 0
  1.000000   0.250000 0
  1.000000   0.312500 0
  0.062500   0.875000 0
  0.125000   0.812500 0
  0.375000   0.812500 0
  0.125000   0.875000 0
  0.375000   0.937500 0
  0.375000   0.875000 0
  0.187500   0.750000 0
  0.187500   0.812500 0
  0.437500   0.812500 0
  0.187500   0.875000 0
  0.437500   0.875000 0
  0.375000   0.562500 0
  0.812500   1.000000 0
  0.125000   0.562500 0
  0.437500   1.000000 0
  0.437500   0.937500 0
  0.187500   0.937500 0
  0.125000   0.937500 0
  0.500000   0.687500 0
  0.500000   0.750000 0
  0.500000   0.812500 0
  0.250000   0.812500 0
  0.250000   0.875000 0
  0.500000   0.875000 0
  0.437500   0.750000 0
  0.312500   0.875000 0
  0.312500   0.937500 0
  0.687500   0.250000 0
  0.687500   0.312500 0
  0.937500   0.312500 0
  0.875000   0.250000 0
  0.625000   0.000000 0
  0.875000   0.000000 0
  0.687500   0.375000 0
  0.937500   0.375000 0
  0.875000   0.312500 0
  0.625000   0.312500 0
  0.687500   0.000000 0
  0.937500   0.000000 0
  0.750000   0.312500 0
  0.750000   0.375000 0
  1.000000   0.375000 0
  0.812500   0.250000 0
  0.562500   0.437500 0
  0.562500   0.500000 0
  0.687500   0.062500 0
  0.750000   0.437500 0
  0.750000   0.000000 0
  0.750000   0.062500 0
  1.000000   0.062500 0
  0.812500   0.375000 0
  0.812500   0.437500 0
CELLS 256 1280
4 169 170 148 68
4 151 166 56 167
4 195 45 196 167
4 54 170 201 202
4 109 34 30 147
4 40 32 81 112
4 192 89 86 68
4 48 91 78 202
4 99 64 196 97
4 71 43 37 103
4 74 186 56 95
4 109 164 34 115
4 50 81 158 112
4 122 69 92 70
4 195 145 45 106
4 110 143 174 175
4 157 30 158 147
4 40 69 32 41
4 50 158 148 147
4 141 155 164 115
4 122 123 69 41
4 142 186 143 175
4 60 39 61 42
4 40 51 69 70
4 120 31 123 41
4 157 174 36 175
4 50 148 89 68
4 48 78 155 115
4 52 83 51 70
4 151 56 66 95
4 71 61 43 42
4 169 148 34 147
4 100 193 39 42
4 40 81 51 199
4 110 174 32 112
4 109 30 145 106
4 100 66 193 95
4 169 34 78 115
4 190 92 83 70
4 50 89 81 199
4 54 86 170 68
4 74 56 45 167
4 142 143 43 103
4 153 59 64 97
4 99 196 166 167
4 169 78 170 202
4 142 193 186 95
4 192 128 89 199
4 74 45 36 106
4 110 31 143 103
4 76 184 59 97
4 142 43 193 42
4 52 51 128 199
4 189 201 91 202
4 120 37 31 103
4 74 36 186 175
4 195 196 184 97
4 141 164 140 183
4 157 158 174 112
4 109 145 164 183
4 195 184 145 183
4 110 32 31 41
4 157 36 30 106
4 76 140 184 183
4 171 172 206 181
4 178 172 261 136
4 256 261 255 136
4 256 257 261 245
4 180 150 206 207
4 60 119 39 210
4 118 215 241 263
4 178 205 172 181
4 216 243 238 244
4 162 217 233 232
4 180 206 131 181
4 179 137 119 210
4 216 204 217 232
4 220 237 219 229
4 216 217 243 159
4 259 258 262 224
4 240 254 237 229
4 153 64 227 208
4 161 205 258 224
4 240 237 238 223
4 226 227 233 208
4 234 228 254 229
4 171 248 137 210
4 160 132 204 232
4 180 131 138 159
4 133 251 213 252
4 171 206 248 207
4 162 138 217 159
4 161 258 243 244
4 220 225 237 223
4 151 150 166 212
4 260 247 257 245
4 259 262 214 263
4 151 66 150 207
4 234 254 209 253
4 162 233 250 208
4 242 241 262 263
4 171 137 172 136
4 161 243 131 159
4 160 204 225 223
4 161 131 205 181
4 179 255 137 136
4 216 238 204 223
4 100 39 248 210
4 260 213 247 252
4 226 233 132 232
4 134 214 215 263
4 180 138 150 212
4 178 261 239 245
4 259 246 258 244
4 178 239 205 224
4 240 238 246 244
4 242 262 239 224
4 99 250 64 208
4 240 246 254 253
4 242 239 247 245
4 135 219 228 229
4 99 166 250 212
4 259 214 246 253
4 118 241 251 252
4 100 248 66 207
4 134 209 214 253
4 162 250 138 212
4 242 247 241 252
4 71 187 61 280
4 102 281 197 280
4 122 92 82 203
4 17 18 82 117
4 122 82 123 117
4 19 264 273 265
4 267 279 222 20
4 125 273 270 265
4 267 272 279 176
4 19 116 18 117
4 21 25 286 24
4 23 28 26 20
4 23 285 28 27
4 218 286 275 24
4 85 53 84 288
4 235 236 231 266
4 221 222 28 20
4 267 222 231 230
4 268 38 129 203
4 125 270 197 188
4 126 287 272 176
4 277 270 276 265
4 267 231 272 266
4 125 197 187 280
4 190 129 92 203
4 277 276 287 176
4 19 18 264 22
4 17 82 38 203
4 102 197 90 188
4 126 84 287 288
4 284 130 285 27
4 121 276 264 265
4 71 37 187 177
4 120 123 116 117
4 198 88 127 191
4 221 16 25 24
4 23 26 15 22
4 121 279 276 176
4 235 231 124 230
4 125 187 273 177
4 278 271 236 266
4 277 287 283 288
4 284 285 274 282
4 278 127 271 191
4 269 275 16 24
4 200 283 53 288
4 23 15 285 282
4 121 26 279 20
4 21 124 25 230
4 19 273 116 177
4 200 90 283 188
4 126 271 84 191
4 269 16 130 27
4 17 38 15 282
4 221 25 222 230
4 121 264 26 22
4 120 116 37 177
4 60 61 281 280
4 277 283 270 188
4 126 272 271 266
4 268 274 38 282
4 85 84 88 191
4 17 15 18 22
4 221 28 16 27
4 93 94 73 55
4 85 88 67 87
4 80 49 79 87
4 44 104 73 72
4 146 33 67 168
4 211 165 149 55
4 8 47 14 154
4 105 104 108 144
4 105 108 29 107
4 7 139 13 75
4 44 165 194 98
4 200 53 77 168
4 8 1 101 4
4 2 5 152 58
4 260 6 213 3
4 105 35 104 72
4 96 57 182 75
4 7 14 139 154
4 146 29 33 107
4 7 13 10 9
4 12 13 57 75
4 85 67 53 168
4 44 73 165 55
4 63 152 62 58
4 8 101 47 46
4 96 182 194 144
4 60 281 119 4
4 12 5 6 3
4 173 185 35 72
4 65 149 94 55
4 146 67 49 87
4 114 113 47 154
4 163 108 182 144
4 12 6 13 9
4 173 35 111 156
4 163 182 139 75
4 260 257 6 9
4 105 29 35 156
4 163 139 113 154
4 256 10 257 9
4 146 49 29 156
4 163 113 108 107
4 80 111 49 156
4 102 101 281 4
4 12 57 5 58
4 44 194 104 144
4 96 194 62 98
4 2 0 5 3
4 93 73 185 72
4 179 119 1 4
4 200 77 90 46
4 114 33 113 107
4 7 10 14 11
4 96 62 57 58
4 133 213 0 3
4 102 90 101 46
4 256 255 10 11
4 63 62 249 98
4 114 47 77 46
4 179 1 255 11
4 211 249 165 98
4 114 77 33 168
4 198 79 88 87
4 8 14 1 11
CELL_TYPES 256
8
8
8
8
8
8
8
8
8
8
8
8
8
8
8
8
8
8
8
8
8
8
8
8
8
8
8
8
8
8
8
8
8
8
8
8
8
8
8
8
8
8
8
8
8
8
8
8
8
8
8
8
8
8
8
8
8
8
8
8
8
8
8
8
8
8
8
8
8
8
8
8
8
8
8
8
8
8
8
8
8
8
8
8
8
8
8
8
8
8
8
8
8
8
8
8
8
8
8
8
8
8
8
8
8
8
8
8
8
8
8
8
8
8
8
8
8
8
8
8
8
8
8
8
8
8
8
8
8
8
8
8
8
8
8
8
8
8
8
8
8
8
8
8
8
8
8
8
8
8
8
8
8
8
8
8
8
8
8
8
8
8
8
8
8
8
8
8
8
8
8
8
8
8
8
8
8
8
8
8
8
8
8
8
8
8
8
8
8
8
8
8
8
8
8
8
8
8
8
8
8
8
8
8
8
8
8
8
8
8
8
8
8
8
8
8
8
8
8
8
8
8
8
8
8
8
8
8
8
8
8
8
8
8
8
8
8
8
8
8
8
8
8
8
8
8
8
8
8
8
8
8
8
8
8
8
CELL_DATA 256
VECTORS vector_value float
-0.107792 -0.304404 0
0.0678269 -0.145729 0
0.13728 -0.47288 0
-0.00909603 -1.15824 0
0.151349 -0.283017 0
0.503112 -0.740437 0
-0.0175396 -0.0987304 0
-0.0506819 -2.21114 0
-0.147441 -1.87037 0
-0.362991 -0.786471 0
0.00972913 -0.174198 0
0.159425 -0.951683 0
0.17495 -0.274671 0
0.0887054 -3.26789 0
0.306154 -0.401238 0
-0.034953 -1.14424 0
0.201636 -0.414662 0
0.606759 -1.73049 0
-0.00499329 -0.319383 0
0.078078 -2.1857 0
-0.175643 -2.1031 0
-0.111014 -0.659259 0
-0.504471 -0.736977 0
0.548225 -1.75911 0
-0.3304 -1.11475 0
0.307406 -0.55067 0
-0.0238597 -0.156584 0
0.00299602 -2.0784 0
0.2052 -1.39125 0
0.0309646 -0.0875806 0
-0.360618 -0.828872 0
-0.0467546 -0.334453 0
-0.283691 -0.534993 0
0.176897 -0.296006 0
0.610579 -1.33411 0
0.280735 -0.341558 0
-0.0605564 -0.256811 0
-0.00697751 -0.968411 0
0.0908635 -4.10948 0
0.0334724 -0.121608 0
-0.0598743 -0.244459 0
0.103881 -0.173485 0
-0.287475 -0.764691 0
-0.140387 -2.0518 0
0.0514254 -0.472976 0
-0.124871 -0.984732 0
-0.200875 -0.471786 0
0.0116726 -0.0775127 0
0.215919 -0.294589 0
-0.255271 -0.845056 0
-0.0727852 -2.35755 0
-0.358026 -0.718407 0
0.0527809 -0.172391 0
0.0318361 -2.15479 0
-0.192317 -0.593521 0
0.035788 -0.383415 0
-0.00734984 -1.46776 0
0.0812305 -2.41651 0
0.304155 -0.448578 0
0.184446 -0.936731 0
0.136643 -1.27463 0
0.306425 -1.05503 0
0.337662 -0.397543 0
-0.0228479 -2.39719 0
-0.0216528 -0.106921 0
-0.0101137 -0.151812 0
-0.0347299 -0.211983 0
0.0882888 -0.175368 0
0.0395433 -0.0782747 0
-0.419883 -0.502543 0
0.76932 -1.25139 0
-0.0201103 -0.105507 0
-0.687113 -1.09422 0
-0.747818 -1.60384 0
-0.0504296 -0.104738 0
-0.0257093 -0.194385 0
-0.495175 -0.992935 0
0.0839885 -0.698049 0
-0.969236 -1.61274 0
-0.666387 -1.59021 0
0.170526 -0.36074 0
-0.117314 -1.82368 0
-0.536372 -0.943505 0
0.00208069 -0.425414 0
-0.152783 -1.58197 0
0.486987 -0.509846 0
-0.0244032 -0.19666 0
-0.147895 -0.902223 0
-0.275426 -0.391404 0
1.37269 -0.900855 0
0.0152048 -0.138085 0
-0.789016 -1.44996 0
-0.717755 -1.19927 0
0.0204683 -0.614946 0
0.0488963 -0.137908 0
0.248691 -0.223241 0
0.0607285 -1.60398 0
0.0517696 -0.0601527 0
1.09017 -0.706337 0
-0.34908 -1.83783 0
0.152748 -1.16282 0
-0.0349189 -0.16856 0
-0.882848 -0.956948 0
-0.0489139 -0.673424 0
-0.158354 -0.24484 0
-0.0373334 -0.244138 0
-0.234448 -0.657162 0
-0.0849409 -0.267005 0
0.717895 -0.461751 0
-0.206292 -1.1873 0
1.15834 -1.41196 0
-0.0281532 -0.215639 0
0.0635944 -0.172937 0
-0.717764 -1.18203 0
-0.069266 -0.269522 0
-0.142492 -0.427828 0
-0.105647 -0.719421 0
-0.253275 -1.90698 0
0.191942 -0.356099 0
0.193364 -0.217688 0
0.0892129 -0.909837 0
-0.117152 -0.730335 0
0.230727 -0.993512 0
0.920335 -0.66203 0
0.0323065 -0.187854 0
1.35201 -0.96646 0
-0.23486 -1.01015 0
0.427395 -0.387577 0
-0.238765 -1.13167 0
-0.386088 -1.4723 0
-0.54615 -1.29668 0
-0.495923 -0.838699 0
-0.640814 -1.15957 0
-0.281364 -1.1172 0
-0.324817 -1.2711 0
-0.373588 -1.40131 0
0.0358322 -0.855142 0
-0.664478 -1.57154 0
-0.00694404 -0.548956 0
-0.422061 -1.15297 0
-0.0428692 -0.995572 0
-0.0146072 -0.502644 0
-0.596128 -1.43186 0
-0.168929 -1.23857 0
-0.323817 -1.29553 0
-0.501628 -1.24491 0
-0.268558 -0.656699 0
-0.370098 -1.31412 0
0.0513837 -0.705688 0
-0.208255 -0.958343 0
-0.162655 -1.09558 0
-0.182854 -1.28927 0
-0.230024 -1.37912 0
-0.0211327 -1.22326 0
-0.196593 -0.698706 0
-0.455985 -0.659127 0
-0.449263 -0.846826 0
-0.148811 -0.917065 0
0.0213279 -0.620287 0
-0.0460185 -0.815805 0
-0.22676 -0.983483 0
-0.814882 -1.01381 0
0.0577104 -1.00431 0
0.0106974 -0.976681 0
-0.30481 -0.627548 0
0.0588811 -0.997815 0
-0.195333 -0.767477 0
-0.304177 -1.4608 0
0.0245674 -1.31171 0
-0.432558 -1.40355 0
-0.0677708 -0.658621 0
0.0833427 -1.15593 0
0.0110682 -1.10277 0
-0.948519 -1.52663 0
-0.273782 -0.760808 0
-0.0779706 -0.893841 0
-0.0197196 -0.529912 0
-0.401794 -1.72259 0
-0.75639 -0.815344 0
0.0871183 -1.10756 0
0.100118 -1.27824 0
-0.326536 -0.53661 0
-0.115423 -1.04022 0
-0.110503 -0.751101 0
-0.303994 -0.931456 0
-0.514796 -1.3478 0
-0.547524 -1.01589 0
0.0326102 -0.993908 0
-0.15183 -0.394776 0
-0.0736533 -1.39769 0
-0.37771 -0.806197 0
0.0611947 -1.12409 0
-0.00793747 -0.167096 0
-0.480115 -1.85799 0
-0.100275 -1.49135 0
0.445338 -0.818765 0
0.172123 -1.23988 0
-0.73954 -1.1419 0
-0.405402 -1.97647 0
0.582826 -1.25326 0
0.555582 -1.29117 0
0.255931 -2.21463 0
-0.190793 -1.63666 0
-0.145813 -1.35489 0
-0.72087 -1.71252 0
1.16104 -1.07579 0
1.24399 -1.1181 0
0.409804 -0.623951 0
0.103341 -2.25616 0
-0.129239 -2.04419 0
0.358266 -1.30339 0
0.310368 -1.11544 0
0.48299 -1.78752 0
-0.397943 -1.72152 0
-0.0343547 -0.935476 0
0.744717 -1.51341 0
-0.400879 -1.23566 0
0.013508 -2.14175 0
-0.831072 -1.4217 0
1.23949 -0.977106 0
0.267098 -1.05512 0
-0.384595 -0.413692 0
0.0283276 -1.66526 0
0.182762 -1.8116 0
0.310446 -1.68256 0
0.693278 -1.15686 0
0.0565739 -1.20745 0
0.0757907 -2.45427 0
0.445884 -0.650118 0
0.341875 -1.07874 0
0.195732 -2.55191 0
0.187586 -0.415353 0
0.296404 -1.44768 0
0.527135 -1.15244 0
0.0835462 -1.39753 0
-0.765974 -1.44603 0
0.897812 -1.3878 0
0.24478 -1.34924 0
0.103801 -1.92167 0
1.17748 -0.794171 0
0.213305 -0.438812 0
-0.286654 -0.862569 0
-0.207286 -0.627971 0
0.327281 -1.12503 0
-0.147349 -1.16137 0
0.512325 -1.83156 0
1.28374 -1.15379 0
-0.500628 -0.938487 0
-0.0835593 -0.333741 0
0.0906986 -1.24061 0
0.0296237 -1.1122 0
-0.0784752 -0.409744 0
-0.418578 -1.34791 0
0.335195 -1.42757 0
-0.138917 -1.01496 0
-0.285641 -1.2717 0
