# vtk DataFile Version 2.0
Unstructured Grid by M++
ASCII
DATASET UNSTRUCTURED_GRID
POINTS 81 float
  1.000000   0.625000 0
  0.750000   0.375000 0
  1.000000   0.000000 0
  0.875000   0.875000 0
  0.750000   0.125000 0
  1.000000   1.000000 0
  0.875000   0.250000 0
  0.625000   0.875000 0
  1.000000   0.750000 0
  0.875000   0.000000 0
  1.000000   0.250000 0
  0.625000   0.375000 0
  0.875000   0.500000 0
  0.625000   0.625000 0
  1.000000   0.500000 0
  0.750000   0.500000 0
  0.750000   1.000000 0
  1.000000   0.125000 0
  0.625000   0.250000 0
  0.750000   0.750000 0
  0.625000   0.000000 0
  0.125000   0.375000 0
  0.000000   0.500000 0
  0.125000   0.625000 0
  0.625000   1.000000 0
  1.000000   0.875000 0
  0.875000   0.125000 0
  0.500000   0.250000 0
  0.625000   0.500000 0
  0.250000   0.625000 0
  0.000000   0.625000 0
  0.375000   0.500000 0
  0.375000   0.000000 0
  0.000000   0.125000 0
  0.125000   0.875000 0
  0.875000   1.000000 0
  0.750000   0.250000 0
  0.375000   0.375000 0
  0.250000   0.375000 0
  0.625000   0.750000 0
  0.125000   0.125000 0
  0.500000   0.000000 0
  0.250000   0.875000 0
  0.125000   0.500000 0
  0.500000   0.375000 0
  0.125000   0.000000 0
  0.250000   0.750000 0
  0.250000   0.500000 0
  0.000000   0.875000 0
  0.875000   0.625000 0
  0.500000   0.750000 0
  0.750000   0.625000 0
  0.250000   0.000000 0
  0.375000   0.750000 0
  0.750000   0.875000 0
  0.625000   0.125000 0
  0.250000   0.250000 0
  0.375000   1.000000 0
  0.375000   0.250000 0
  0.000000   0.375000 0
  0.500000   1.000000 0
  0.875000   0.750000 0
  0.750000   0.000000 0
  0.375000   0.125000 0
  0.500000   0.875000 0
  0.000000   0.000000 0
  0.125000   0.750000 0
  0.500000   0.625000 0
  0.125000   0.250000 0
  0.500000   0.125000 0
  0.250000   1.000000 0
  0.250000   0.125000 0
  0.000000   1.000000 0
  0.375000   0.875000 0
  0.000000   0.750000 0
  0.375000   0.625000 0
  0.000000   0.250000 0
  0.125000   1.000000 0
  1.000000   0.375000 0
  0.500000   0.500000 0
  0.875000   0.375000 0
CELLS 64 320
4 56 71 58 63
4 27 58 69 63
4 41 69 32 63
4 76 33 68 40
4 27 44 58 37
4 79 31 44 37
4 56 38 68 21
4 56 58 38 37
4 52 32 71 63
4 47 38 31 37
4 76 68 59 21
4 22 59 43 21
4 65 45 33 40
4 47 43 38 21
4 52 71 45 40
4 56 68 71 40
4 74 30 66 23
4 46 66 29 23
4 22 43 30 23
4 72 48 77 34
4 46 53 42 73
4 50 64 53 73
4 70 42 57 73
4 74 66 48 34
4 46 42 66 34
4 47 29 43 23
4 70 77 42 34
4 60 57 64 73
4 79 67 31 75
4 47 31 29 75
4 50 53 67 75
4 46 29 53 75
4 10 78 6 80
4 36 6 1 80
4 15 1 12 80
4 36 4 6 26
4 14 12 78 80
4 2 17 9 26
4 36 18 4 55
4 15 28 1 11
4 62 4 20 55
4 10 6 17 26
4 27 18 44 11
4 62 9 4 26
4 27 69 18 55
4 36 1 18 11
4 41 20 69 55
4 79 44 28 11
4 16 24 54 7
4 19 54 39 7
4 50 39 64 7
4 8 25 61 3
4 60 64 24 7
4 79 28 67 13
4 19 51 61 49
4 8 61 0 49
4 15 51 28 13
4 19 39 51 13
4 50 67 39 13
4 19 61 54 3
4 14 0 12 49
4 5 35 25 3
4 15 12 51 49
4 16 54 35 3
CELL_TYPES 64
8
8
8
8
8
8
8
8
8
8
8
8
8
8
8
8
8
8
8
8
8
8
8
8
8
8
8
8
8
8
8
8
8
8
8
8
8
8
8
8
8
8
8
8
8
8
8
8
8
8
8
8
8
8
8
8
8
8
8
8
8
8
8
8
CELL_DATA 64
VECTORS vector_value float
-0.632884 -1.9105 0
-0.202286 -0.183504 0
-0.147732 -0.164128 0
0.0593843 -0.137294 0
-0.481574 -0.363255 0
-0.0281627 -0.170517 0
-0.272083 -1.20936 0
-0.376007 -2.0579 0
-0.0264343 -2.01418 0
0.0298507 -2.49362 0
0.0471632 -0.209796 0
0.0113024 -0.295602 0
0.0189598 -0.0412024 0
0.0365365 -0.598568 0
0.0611449 -2.15125 0
-0.300293 -1.9774 0
0.0719703 -0.494235 0
-0.0709288 -0.80067 0
0.0465384 -0.364663 0
0.191123 -0.766835 0
-0.305923 -0.87717 0
-0.160684 -1.0501 0
1.15912 -0.890011 0
0.0361173 -0.576433 0
-0.0224797 -0.299997 0
0.218932 -0.838931 0
0.742533 -0.54164 0
1.11013 -1.40531 0
-0.0827893 -0.234235 0
-0.141656 -2.08762 0
-0.820218 -0.838975 0
-0.410017 -1.00067 0
-0.425123 -1.35445 0
-0.470069 -0.862952 0
-0.514187 -1.48351 0
-1.03028 -1.09453 0
-0.133848 -1.73352 0
-0.0263699 -0.265006 0
-0.51784 -1.84592 0
-0.144787 -0.688525 0
-0.550451 -1.942 0
-0.206837 -0.409704 0
-0.543129 -0.80636 0
-0.12972 -0.408904 0
-0.0843783 -0.441155 0
-0.830233 -1.13592 0
-0.47474 -1.01332 0
-0.09623 -0.536138 0
0.292412 -0.866455 0
0.701661 -1.74197 0
0.561789 -1.10334 0
-0.183697 -1.01424 0
0.614685 -1.24409 0
-0.116381 -0.275356 0
0.982108 -1.78903 0
0.49812 -0.997667 0
-0.120134 -1.00274 0
0.222543 -1.56697 0
-0.318165 -0.511784 0
-0.127667 -1.33675 0
0.0032838 -2.20612 0
0.102579 -1.35987 0
-0.108142 -0.990333 0
0.34579 -0.925791 0
