# vtk DataFile Version 2.0
Unstructured Grid by M++
ASCII
DATASET UNSTRUCTURED_GRID
POINTS 81 float
  1.000000   0.625000 0
  0.750000   0.375000 0
  1.000000   0.000000 0
  0.875000   0.875000 0
  0.750000   0.125000 0
  1.000000   1.000000 0
  0.875000   0.250000 0
  0.625000   0.875000 0
  1.000000   0.750000 0
  0.875000   0.000000 0
  1.000000   0.250000 0
  0.625000   0.375000 0
  0.875000   0.500000 0
  0.625000   0.625000 0
  1.000000   0.500000 0
  0.750000   0.500000 0
  0.750000   1.000000 0
  1.000000   0.125000 0
  0.625000   0.250000 0
  0.750000   0.750000 0
  0.625000   0.000000 0
  0.125000   0.375000 0
  0.000000   0.500000 0
  0.125000   0.625000 0
  0.625000   1.000000 0
  1.000000   0.875000 0
  0.875000   0.125000 0
  0.500000   0.250000 0
  0.625000   0.500000 0
  0.250000   0.625000 0
  0.000000   0.625000 0
  0.375000   0.500000 0
  0.375000   0.000000 0
  0.000000   0.125000 0
  0.125000   0.875000 0
  0.875000   1.000000 0
  0.750000   0.250000 0
  0.375000   0.375000 0
  0.250000   0.375000 0
  0.625000   0.750000 0
  0.125000   0.125000 0
  0.500000   0.000000 0
  0.250000   0.875000 0
  0.125000   0.500000 0
  0.500000   0.375000 0
  0.125000   0.000000 0
  0.250000   0.750000 0
  0.250000   0.500000 0
  0.000000   0.875000 0
  0.875000   0.625000 0
  0.500000   0.750000 0
  0.750000   0.625000 0
  0.250000   0.000000 0
  0.375000   0.750000 0
  0.750000   0.875000 0
  0.625000   0.125000 0
  0.250000   0.250000 0
  0.375000   1.000000 0
  0.375000   0.250000 0
  0.000000   0.375000 0
  0.500000   1.000000 0
  0.875000   0.750000 0
  0.750000   0.000000 0
  0.375000   0.125000 0
  0.500000   0.875000 0
  0.000000   0.000000 0
  0.125000   0.750000 0
  0.500000   0.625000 0
  0.125000   0.250000 0
  0.500000   0.125000 0
  0.250000   1.000000 0
  0.250000   0.125000 0
  0.000000   1.000000 0
  0.375000   0.875000 0
  0.000000   0.750000 0
  0.375000   0.625000 0
  0.000000   0.250000 0
  0.125000   1.000000 0
  1.000000   0.375000 0
  0.500000   0.500000 0
  0.875000   0.375000 0
CELLS 64 320
4 56 71 58 63
4 27 58 69 63
4 41 69 32 63
4 76 33 68 40
4 27 44 58 37
4 79 31 44 37
4 56 38 68 21
4 56 58 38 37
4 52 32 71 63
4 47 38 31 37
4 76 68 59 21
4 22 59 43 21
4 65 45 33 40
4 47 43 38 21
4 52 71 45 40
4 56 68 71 40
4 74 30 66 23
4 46 66 29 23
4 22 43 30 23
4 72 48 77 34
4 46 53 42 73
4 50 64 53 73
4 70 42 57 73
4 74 66 48 34
4 46 42 66 34
4 47 29 43 23
4 70 77 42 34
4 60 57 64 73
4 79 67 31 75
4 47 31 29 75
4 50 53 67 75
4 46 29 53 75
4 10 78 6 80
4 36 6 1 80
4 15 1 12 80
4 36 4 6 26
4 14 12 78 80
4 2 17 9 26
4 36 18 4 55
4 15 28 1 11
4 62 4 20 55
4 10 6 17 26
4 27 18 44 11
4 62 9 4 26
4 27 69 18 55
4 36 1 18 11
4 41 20 69 55
4 79 44 28 11
4 16 24 54 7
4 19 54 39 7
4 50 39 64 7
4 8 25 61 3
4 60 64 24 7
4 79 28 67 13
4 19 51 61 49
4 8 61 0 49
4 15 51 28 13
4 19 39 51 13
4 50 67 39 13
4 19 61 54 3
4 14 0 12 49
4 5 35 25 3
4 15 12 51 49
4 16 54 35 3
CELL_TYPES 64
8
8
8
8
8
8
8
8
8
8
8
8
8
8
8
8
8
8
8
8
8
8
8
8
8
8
8
8
8
8
8
8
8
8
8
8
8
8
8
8
8
8
8
8
8
8
8
8
8
8
8
8
8
8
8
8
8
8
8
8
8
8
8
8
CELL_DATA 64
VECTORS vector_value float
-0.704609 -2.16584 0
-0.867579 -1.43683 0
-0.248483 -1.61861 0
-0.0379792 -0.74753 0
-0.242075 -1.01753 0
0.00760719 -0.0953735 0
0.496455 -0.928574 0
0.583279 -2.03843 0
-0.259744 -2.09392 0
0.493632 -1.33334 0
0.0754142 -0.774262 0
0.487628 -1.61831 0
-0.425474 -1.53296 0
0.850354 -1.14652 0
-0.458681 -1.02647 0
-0.499308 -1.18324 0
-0.487257 -1.96315 0
-1.18561 -1.59336 0
0.214824 -2.36005 0
0.153651 -0.695751 0
-1.24683 -1.36673 0
-0.463041 -1.01893 0
0.116831 -0.932071 0
-0.318201 -1.16176 0
-0.536206 -0.915597 0
0.553313 -1.32852 0
0.157037 -1.07651 0
-0.293496 -1.56028 0
0.0736668 -0.430171 0
0.0787582 -0.279535 0
0.0293277 -0.422165 0
-0.211006 -0.496347 0
-0.279844 -1.01359 0
-0.577071 -0.646288 0
-0.319449 -0.550275 0
-0.694003 -0.328189 0
-0.157551 -1.38773 0
-0.0062181 -0.188413 0
-1.15459 -0.694396 0
-0.0942236 -0.591887 0
-0.0622441 -0.364684 0
-0.271247 -0.499238 0
-0.536107 -0.928069 0
-0.0305694 -0.187583 0
-1.13924 -0.944735 0
-0.401368 -0.653254 0
-0.199314 -0.987358 0
0.0352728 -1.27657 0
-0.110029 -0.727635 0
0.100088 -0.483032 0
-0.0504341 -0.833214 0
0.255771 -1.51239 0
-0.359253 -1.02076 0
0.00169329 -1.21365 0
-0.0995549 -0.427509 0
0.00810179 -1.86208 0
-0.0545868 -0.235587 0
-0.175078 -0.344609 0
-0.0514816 -0.890785 0
0.407734 -0.708344 0
-0.0760963 -1.73549 0
0.120253 -1.14613 0
-0.0693195 -0.416998 0
0.159343 -0.840871 0
