# vtk DataFile Version 2.0
Unstructured Grid by M++
ASCII
DATASET UNSTRUCTURED_GRID
POINTS 81 float
  1.000000   0.625000 0
  0.750000   0.375000 0
  1.000000   0.000000 0
  0.875000   0.875000 0
  0.750000   0.125000 0
  1.000000   1.000000 0
  0.875000   0.250000 0
  0.625000   0.875000 0
  1.000000   0.750000 0
  0.875000   0.000000 0
  1.000000   0.250000 0
  0.625000   0.375000 0
  0.875000   0.500000 0
  0.625000   0.625000 0
  1.000000   0.500000 0
  0.750000   0.500000 0
  0.750000   1.000000 0
  1.000000   0.125000 0
  0.625000   0.250000 0
  0.750000   0.750000 0
  0.625000   0.000000 0
  0.125000   0.375000 0
  0.000000   0.500000 0
  0.125000   0.625000 0
  0.625000   1.000000 0
  1.000000   0.875000 0
  0.875000   0.125000 0
  0.500000   0.250000 0
  0.625000   0.500000 0
  0.250000   0.625000 0
  0.000000   0.625000 0
  0.375000   0.500000 0
  0.375000   0.000000 0
  0.000000   0.125000 0
  0.125000   0.875000 0
  0.875000   1.000000 0
  0.750000   0.250000 0
  0.375000   0.375000 0
  0.250000   0.375000 0
  0.625000   0.750000 0
  0.125000   0.125000 0
  0.500000   0.000000 0
  0.250000   0.875000 0
  0.125000   0.500000 0
  0.500000   0.375000 0
  0.125000   0.000000 0
  0.250000   0.750000 0
  0.250000   0.500000 0
  0.000000   0.875000 0
  0.875000   0.625000 0
  0.500000   0.750000 0
  0.750000   0.625000 0
  0.250000   0.000000 0
  0.375000   0.750000 0
  0.750000   0.875000 0
  0.625000   0.125000 0
  0.250000   0.250000 0
  0.375000   1.000000 0
  0.375000   0.250000 0
  0.000000   0.375000 0
  0.500000   1.000000 0
  0.875000   0.750000 0
  0.750000   0.000000 0
  0.375000   0.125000 0
  0.500000   0.875000 0
  0.000000   0.000000 0
  0.125000   0.750000 0
  0.500000   0.625000 0
  0.125000   0.250000 0
  0.500000   0.125000 0
  0.250000   1.000000 0
  0.250000   0.125000 0
  0.000000   1.000000 0
  0.375000   0.875000 0
  0.000000   0.750000 0
  0.375000   0.625000 0
  0.000000   0.250000 0
  0.125000   1.000000 0
  1.000000   0.375000 0
  0.500000   0.500000 0
  0.875000   0.375000 0
CELLS 64 320
4 56 71 58 63
4 27 58 69 63
4 41 69 32 63
4 76 33 68 40
4 27 44 58 37
4 79 31 44 37
4 56 38 68 21
4 56 58 38 37
4 52 32 71 63
4 47 38 31 37
4 76 68 59 21
4 22 59 43 21
4 65 45 33 40
4 47 43 38 21
4 52 71 45 40
4 56 68 71 40
4 74 30 66 23
4 46 66 29 23
4 22 43 30 23
4 72 48 77 34
4 46 53 42 73
4 50 64 53 73
4 70 42 57 73
4 74 66 48 34
4 46 42 66 34
4 47 29 43 23
4 70 77 42 34
4 60 57 64 73
4 79 67 31 75
4 47 31 29 75
4 50 53 67 75
4 46 29 53 75
4 10 78 6 80
4 36 6 1 80
4 15 1 12 80
4 36 4 6 26
4 14 12 78 80
4 2 17 9 26
4 36 18 4 55
4 15 28 1 11
4 62 4 20 55
4 10 6 17 26
4 27 18 44 11
4 62 9 4 26
4 27 69 18 55
4 36 1 18 11
4 41 20 69 55
4 79 44 28 11
4 16 24 54 7
4 19 54 39 7
4 50 39 64 7
4 8 25 61 3
4 60 64 24 7
4 79 28 67 13
4 19 51 61 49
4 8 61 0 49
4 15 51 28 13
4 19 39 51 13
4 50 67 39 13
4 19 61 54 3
4 14 0 12 49
4 5 35 25 3
4 15 12 51 49
4 16 54 35 3
CELL_TYPES 64
8
8
8
8
8
8
8
8
8
8
8
8
8
8
8
8
8
8
8
8
8
8
8
8
8
8
8
8
8
8
8
8
8
8
8
8
8
8
8
8
8
8
8
8
8
8
8
8
8
8
8
8
8
8
8
8
8
8
8
8
8
8
8
8
CELL_DATA 64
VECTORS vector_value float
-0.164584 -3.4322 0
0.164608 -1.1466 0
0.115346 -1.05574 0
-0.149017 -0.419001 0
-0.273179 -1.36783 0
-1.90625 -3.07028 0
-0.400651 -1.0202 0
-0.741818 -3.72986 0
-0.0371622 -2.77802 0
-1.92312 -2.11207 0
-0.0936588 -0.148331 0
-0.0137418 -0.0489635 0
-0.167456 -0.847286 0
-0.386962 -0.547184 0
-0.206041 -1.31414 0
-0.402314 -1.29407 0
0.0204099 -0.0898182 0
0.0727195 -0.236223 0
0.0073342 -0.0607439 0
0.355026 -0.565746 0
0.878828 -1.771 0
-0.0951041 -4.31559 0
0.644097 -1.75169 0
0.089552 -0.152849 0
0.419651 -0.430476 0
0.0251322 -0.165488 0
0.83977 -0.680256 0
-0.706424 -1.97448 0
0.370317 -4.80908 0
0.0872661 -0.880386 0
0.382601 -5.39105 0
0.19987 -1.11117 0
0.00229199 -0.0296739 0
0.028148 -0.147169 0
-0.0763502 -0.196328 0
0.491611 -0.79902 0
-0.00552169 -0.0233744 0
0.186376 -0.432746 0
0.377889 -0.753628 0
0.196778 -0.366951 0
0.124266 -0.274194 0
0.044894 -0.0945451 0
0.28573 -0.609416 0
0.336609 -0.932958 0
0.0256316 -0.0609328 0
0.463692 -0.947509 0
0.154491 -0.364923 0
0.0403204 -1.63484 0
-1.8506 -0.539425 0
-0.214113 -0.0736124 0
-0.495233 -0.737119 0
-0.051801 -0.203028 0
-2.16888 -1.19878 0
0.506136 -1.67317 0
-0.0230697 -0.255319 0
-0.0190766 -0.137229 0
-0.0460023 -0.0859779 0
-0.0283926 -0.0432131 0
-8.56223e-05 -0.735978 0
-0.286969 -0.316319 0
-0.0374182 -0.0711058 0
-0.372309 -0.798107 0
-0.076983 -0.254045 0
-0.93767 -0.491517 0
