# vtk DataFile Version 2.0
Unstructured Grid by M++
ASCII
DATASET UNSTRUCTURED_GRID
POINTS 81 float
  1.000000   0.625000 0
  0.750000   0.375000 0
  1.000000   0.000000 0
  0.875000   0.875000 0
  0.750000   0.125000 0
  1.000000   1.000000 0
  0.875000   0.250000 0
  0.625000   0.875000 0
  1.000000   0.750000 0
  0.875000   0.000000 0
  1.000000   0.250000 0
  0.625000   0.375000 0
  0.875000   0.500000 0
  0.625000   0.625000 0
  1.000000   0.500000 0
  0.750000   0.500000 0
  0.750000   1.000000 0
  1.000000   0.125000 0
  0.625000   0.250000 0
  0.750000   0.750000 0
  0.625000   0.000000 0
  0.125000   0.375000 0
  0.000000   0.500000 0
  0.125000   0.625000 0
  0.625000   1.000000 0
  1.000000   0.875000 0
  0.875000   0.125000 0
  0.500000   0.250000 0
  0.625000   0.500000 0
  0.250000   0.625000 0
  0.000000   0.625000 0
  0.375000   0.500000 0
  0.375000   0.000000 0
  0.000000   0.125000 0
  0.125000   0.875000 0
  0.875000   1.000000 0
  0.750000   0.250000 0
  0.375000   0.375000 0
  0.250000   0.375000 0
  0.625000   0.750000 0
  0.125000   0.125000 0
  0.500000   0.000000 0
  0.250000   0.875000 0
  0.125000   0.500000 0
  0.500000   0.375000 0
  0.125000   0.000000 0
  0.250000   0.750000 0
  0.250000   0.500000 0
  0.000000   0.875000 0
  0.875000   0.625000 0
  0.500000   0.750000 0
  0.750000   0.625000 0
  0.250000   0.000000 0
  0.375000   0.750000 0
  0.750000   0.875000 0
  0.625000   0.125000 0
  0.250000   0.250000 0
  0.375000   1.000000 0
  0.375000   0.250000 0
  0.000000   0.375000 0
  0.500000   1.000000 0
  0.875000   0.750000 0
  0.750000   0.000000 0
  0.375000   0.125000 0
  0.500000   0.875000 0
  0.000000   0.000000 0
  0.125000   0.750000 0
  0.500000   0.625000 0
  0.125000   0.250000 0
  0.500000   0.125000 0
  0.250000   1.000000 0
  0.250000   0.125000 0
  0.000000   1.000000 0
  0.375000   0.875000 0
  0.000000   0.750000 0
  0.375000   0.625000 0
  0.000000   0.250000 0
  0.125000   1.000000 0
  1.000000   0.375000 0
  0.500000   0.500000 0
  0.875000   0.375000 0
CELLS 64 320
4 56 71 58 63
4 27 58 69 63
4 41 69 32 63
4 76 33 68 40
4 27 44 58 37
4 79 31 44 37
4 56 38 68 21
4 56 58 38 37
4 52 32 71 63
4 47 38 31 37
4 76 68 59 21
4 22 59 43 21
4 65 45 33 40
4 47 43 38 21
4 52 71 45 40
4 56 68 71 40
4 74 30 66 23
4 46 66 29 23
4 22 43 30 23
4 72 48 77 34
4 46 53 42 73
4 50 64 53 73
4 70 42 57 73
4 74 66 48 34
4 46 42 66 34
4 47 29 43 23
4 70 77 42 34
4 60 57 64 73
4 79 67 31 75
4 47 31 29 75
4 50 53 67 75
4 46 29 53 75
4 10 78 6 80
4 36 6 1 80
4 15 1 12 80
4 36 4 6 26
4 14 12 78 80
4 2 17 9 26
4 36 18 4 55
4 15 28 1 11
4 62 4 20 55
4 10 6 17 26
4 27 18 44 11
4 62 9 4 26
4 27 69 18 55
4 36 1 18 11
4 41 20 69 55
4 79 44 28 11
4 16 24 54 7
4 19 54 39 7
4 50 39 64 7
4 8 25 61 3
4 60 64 24 7
4 79 28 67 13
4 19 51 61 49
4 8 61 0 49
4 15 51 28 13
4 19 39 51 13
4 50 67 39 13
4 19 61 54 3
4 14 0 12 49
4 5 35 25 3
4 15 12 51 49
4 16 54 35 3
CELL_TYPES 64
8
8
8
8
8
8
8
8
8
8
8
8
8
8
8
8
8
8
8
8
8
8
8
8
8
8
8
8
8
8
8
8
8
8
8
8
8
8
8
8
8
8
8
8
8
8
8
8
8
8
8
8
8
8
8
8
8
8
8
8
8
8
8
8
CELL_DATA 64
VECTORS vector_value float
0.0241526 -0.246077 0
0.0176181 -0.489401 0
0.0464809 -0.516285 0
-0.000919213 -0.103299 0
-0.172116 -0.566577 0
0.054242 -0.378544 0
0.0304636 -0.241349 0
-0.0302978 -0.179492 0
0.101195 -0.353743 0
0.0214572 -0.0873903 0
0.0187851 -0.1211 0
0.015364 -0.156319 0
-0.00305134 -0.1188 0
0.0404196 -0.241407 0
0.0114804 -0.0643089 0
0.077993 -0.252097 0
0.123509 -0.467237 0
0.369744 -0.253873 0
0.0810062 -0.276464 0
-0.124036 -1.44926 0
0.84811 -0.257207 0
1.39021 -1.80947 0
0.712135 -1.33647 0
0.329434 -0.986271 0
0.653392 -0.247111 0
0.118097 -0.168048 0
0.0493691 -0.0765135 0
0.18411 -1.07301 0
0.0932682 -0.305345 0
0.180172 -0.192093 0
1.09894 -1.25141 0
0.299961 -0.0968778 0
-0.0902538 -1.0395 0
-0.241597 -0.845383 0
-1.3944 -0.818067 0
-0.298974 -1.03712 0
-0.668664 -2.07051 0
-0.0382838 -0.521447 0
-0.881821 -3.21325 0
-0.38015 -3.6102 0
-0.673135 -1.80913 0
-0.162941 -0.746581 0
-0.349755 -0.593492 0
-0.159399 -0.855232 0
-0.66961 -1.91218 0
-0.608231 -4.4131 0
-0.83271 -3.76106 0
0.241561 -0.637563 0
0.58507 -0.636063 0
0.271687 -0.217814 0
0.555433 -1.41647 0
0.405265 -2.291 0
0.196381 -0.824561 0
0.737662 -1.80375 0
0.348411 -0.521338 0
0.235689 -2.85539 0
1.2806 -1.5164 0
0.075037 -0.0373278 0
1.54859 -2.51654 0
0.356904 -0.77466 0
-0.254658 -2.92397 0
0.328188 -1.24476 0
-0.175734 -0.813922 0
0.98729 -1.35936 0
