# vtk DataFile Version 2.0
Unstructured Grid by M++
ASCII
DATASET UNSTRUCTURED_GRID
POINTS 81 float
  1.000000   0.625000 0
  0.750000   0.375000 0
  1.000000   0.000000 0
  0.875000   0.875000 0
  0.750000   0.125000 0
  1.000000   1.000000 0
  0.875000   0.250000 0
  0.625000   0.875000 0
  1.000000   0.750000 0
  0.875000   0.000000 0
  1.000000   0.250000 0
  0.625000   0.375000 0
  0.875000   0.500000 0
  0.625000   0.625000 0
  1.000000   0.500000 0
  0.750000   0.500000 0
  0.750000   1.000000 0
  1.000000   0.125000 0
  0.625000   0.250000 0
  0.750000   0.750000 0
  0.625000   0.000000 0
  0.125000   0.375000 0
  0.000000   0.500000 0
  0.125000   0.625000 0
  0.625000   1.000000 0
  1.000000   0.875000 0
  0.875000   0.125000 0
  0.500000   0.250000 0
  0.625000   0.500000 0
  0.250000   0.625000 0
  0.000000   0.625000 0
  0.375000   0.500000 0
  0.375000   0.000000 0
  0.000000   0.125000 0
  0.125000   0.875000 0
  0.875000   1.000000 0
  0.750000   0.250000 0
  0.375000   0.375000 0
  0.250000   0.375000 0
  0.625000   0.750000 0
  0.125000   0.125000 0
  0.500000   0.000000 0
  0.250000   0.875000 0
  0.125000   0.500000 0
  0.500000   0.375000 0
  0.125000   0.000000 0
  0.250000   0.750000 0
  0.250000   0.500000 0
  0.000000   0.875000 0
  0.875000   0.625000 0
  0.500000   0.750000 0
  0.750000   0.625000 0
  0.250000   0.000000 0
  0.375000   0.750000 0
  0.750000   0.875000 0
  0.625000   0.125000 0
  0.250000   0.250000 0
  0.375000   1.000000 0
  0.375000   0.250000 0
  0.000000   0.375000 0
  0.500000   1.000000 0
  0.875000   0.750000 0
  0.750000   0.000000 0
  0.375000   0.125000 0
  0.500000   0.875000 0
  0.000000   0.000000 0
  0.125000   0.750000 0
  0.500000   0.625000 0
  0.125000   0.250000 0
  0.500000   0.125000 0
  0.250000   1.000000 0
  0.250000   0.125000 0
  0.000000   1.000000 0
  0.375000   0.875000 0
  0.000000   0.750000 0
  0.375000   0.625000 0
  0.000000   0.250000 0
  0.125000   1.000000 0
  1.000000   0.375000 0
  0.500000   0.500000 0
  0.875000   0.375000 0
CELLS 64 320
4 56 71 58 63
4 27 58 69 63
4 41 69 32 63
4 76 33 68 40
4 27 44 58 37
4 79 31 44 37
4 56 38 68 21
4 56 58 38 37
4 52 32 71 63
4 47 38 31 37
4 76 68 59 21
4 22 59 43 21
4 65 45 33 40
4 47 43 38 21
4 52 71 45 40
4 56 68 71 40
4 74 30 66 23
4 46 66 29 23
4 22 43 30 23
4 72 48 77 34
4 46 53 42 73
4 50 64 53 73
4 70 42 57 73
4 74 66 48 34
4 46 42 66 34
4 47 29 43 23
4 70 77 42 34
4 60 57 64 73
4 79 67 31 75
4 47 31 29 75
4 50 53 67 75
4 46 29 53 75
4 10 78 6 80
4 36 6 1 80
4 15 1 12 80
4 36 4 6 26
4 14 12 78 80
4 2 17 9 26
4 36 18 4 55
4 15 28 1 11
4 62 4 20 55
4 10 6 17 26
4 27 18 44 11
4 62 9 4 26
4 27 69 18 55
4 36 1 18 11
4 41 20 69 55
4 79 44 28 11
4 16 24 54 7
4 19 54 39 7
4 50 39 64 7
4 8 25 61 3
4 60 64 24 7
4 79 28 67 13
4 19 51 61 49
4 8 61 0 49
4 15 51 28 13
4 19 39 51 13
4 50 67 39 13
4 19 61 54 3
4 14 0 12 49
4 5 35 25 3
4 15 12 51 49
4 16 54 35 3
CELL_TYPES 64
8
8
8
8
8
8
8
8
8
8
8
8
8
8
8
8
8
8
8
8
8
8
8
8
8
8
8
8
8
8
8
8
8
8
8
8
8
8
8
8
8
8
8
8
8
8
8
8
8
8
8
8
8
8
8
8
8
8
8
8
8
8
8
8
CELL_DATA 64
VECTORS vector_value float
0.0184575 -0.128619 0
-0.362371 -1.85584 0
-0.182616 -2.37472 0
-0.0858705 -0.78671 0
-0.0291652 -0.737604 0
-0.0663694 -0.138679 0
-0.0934703 -0.425012 0
0.28757 -0.426707 0
-0.0515733 -0.19291 0
0.0732602 -0.580847 0
-0.0776923 -0.53339 0
-0.0388628 -0.42536 0
0.00284886 -0.809555 0
-0.00525323 -0.677055 0
-0.0178738 -0.116466 0
-0.0210323 -0.118843 0
0.0382455 -0.246826 0
0.0239597 -0.414491 0
-0.083899 -0.380977 0
0.294964 -0.990169 0
0.412887 -0.669293 0
0.753763 -0.770562 0
1.0431 -0.999121 0
0.0459631 -0.363166 0
0.274896 -0.422781 0
-0.24566 -0.616883 0
0.713667 -0.374153 0
1.09937 -0.776784 0
-0.0125418 -0.06036 0
-0.148956 -0.661215 0
-0.0367964 -0.357817 0
-0.165822 -0.788068 0
-0.227854 -0.35254 0
-1.13673 -1.43403 0
-0.964218 -2.38622 0
-0.194366 -0.793517 0
-0.438756 -1.27752 0
0.0162266 -0.100853 0
-1.28293 -1.80798 0
-0.749676 -2.22717 0
-0.0798843 -0.341411 0
-0.0136014 -0.0707777 0
-1.0301 -0.964852 0
0.0310058 -0.773357 0
-1.65896 -2.43771 0
-2.08024 -3.12586 0
-0.511301 -3.29073 0
-0.134314 -0.28715 0
1.11737 -0.960963 0
1.25375 -1.22588 0
1.19174 -1.05419 0
-0.0203841 -1.8445 0
1.20092 -1.30571 0
-0.00294672 -0.281864 0
0.4566 -3.21329 0
-0.12924 -1.58788 0
-0.226065 -1.08251 0
0.579269 -0.981866 0
0.220722 -0.409764 0
0.351858 -1.64963 0
-0.0315605 -1.45976 0
0.3983 -1.51678 0
-0.515616 -3.45643 0
0.96417 -1.07632 0
