# vtk DataFile Version 2.0
Unstructured Grid by M++
ASCII
DATASET UNSTRUCTURED_GRID
POINTS 81 float
  1.000000   0.625000 0
  0.750000   0.375000 0
  1.000000   0.000000 0
  0.875000   0.875000 0
  0.750000   0.125000 0
  1.000000   1.000000 0
  0.875000   0.250000 0
  0.625000   0.875000 0
  1.000000   0.750000 0
  0.875000   0.000000 0
  1.000000   0.250000 0
  0.625000   0.375000 0
  0.875000   0.500000 0
  0.625000   0.625000 0
  1.000000   0.500000 0
  0.750000   0.500000 0
  0.750000   1.000000 0
  1.000000   0.125000 0
  0.625000   0.250000 0
  0.750000   0.750000 0
  0.625000   0.000000 0
  0.125000   0.375000 0
  0.000000   0.500000 0
  0.125000   0.625000 0
  0.625000   1.000000 0
  1.000000   0.875000 0
  0.875000   0.125000 0
  0.500000   0.250000 0
  0.625000   0.500000 0
  0.250000   0.625000 0
  0.000000   0.625000 0
  0.375000   0.500000 0
  0.375000   0.000000 0
  0.000000   0.125000 0
  0.125000   0.875000 0
  0.875000   1.000000 0
  0.750000   0.250000 0
  0.375000   0.375000 0
  0.250000   0.375000 0
  0.625000   0.750000 0
  0.125000   0.125000 0
  0.500000   0.000000 0
  0.250000   0.875000 0
  0.125000   0.500000 0
  0.500000   0.375000 0
  0.125000   0.000000 0
  0.250000   0.750000 0
  0.250000   0.500000 0
  0.000000   0.875000 0
  0.875000   0.625000 0
  0.500000   0.750000 0
  0.750000   0.625000 0
  0.250000   0.000000 0
  0.375000   0.750000 0
  0.750000   0.875000 0
  0.625000   0.125000 0
  0.250000   0.250000 0
  0.375000   1.000000 0
  0.375000   0.250000 0
  0.000000   0.375000 0
  0.500000   1.000000 0
  0.875000   0.750000 0
  0.750000   0.000000 0
  0.375000   0.125000 0
  0.500000   0.875000 0
  0.000000   0.000000 0
  0.125000   0.750000 0
  0.500000   0.625000 0
  0.125000   0.250000 0
  0.500000   0.125000 0
  0.250000   1.000000 0
  0.250000   0.125000 0
  0.000000   1.000000 0
  0.375000   0.875000 0
  0.000000   0.750000 0
  0.375000   0.625000 0
  0.000000   0.250000 0
  0.125000   1.000000 0
  1.000000   0.375000 0
  0.500000   0.500000 0
  0.875000   0.375000 0
CELLS 64 320
4 56 71 58 63
4 27 58 69 63
4 41 69 32 63
4 76 33 68 40
4 27 44 58 37
4 79 31 44 37
4 56 38 68 21
4 56 58 38 37
4 52 32 71 63
4 47 38 31 37
4 76 68 59 21
4 22 59 43 21
4 65 45 33 40
4 47 43 38 21
4 52 71 45 40
4 56 68 71 40
4 74 30 66 23
4 46 66 29 23
4 22 43 30 23
4 72 48 77 34
4 46 53 42 73
4 50 64 53 73
4 70 42 57 73
4 74 66 48 34
4 46 42 66 34
4 47 29 43 23
4 70 77 42 34
4 60 57 64 73
4 79 67 31 75
4 47 31 29 75
4 50 53 67 75
4 46 29 53 75
4 10 78 6 80
4 36 6 1 80
4 15 1 12 80
4 36 4 6 26
4 14 12 78 80
4 2 17 9 26
4 36 18 4 55
4 15 28 1 11
4 62 4 20 55
4 10 6 17 26
4 27 18 44 11
4 62 9 4 26
4 27 69 18 55
4 36 1 18 11
4 41 20 69 55
4 79 44 28 11
4 16 24 54 7
4 19 54 39 7
4 50 39 64 7
4 8 25 61 3
4 60 64 24 7
4 79 28 67 13
4 19 51 61 49
4 8 61 0 49
4 15 51 28 13
4 19 39 51 13
4 50 67 39 13
4 19 61 54 3
4 14 0 12 49
4 5 35 25 3
4 15 12 51 49
4 16 54 35 3
CELL_TYPES 64
8
8
8
8
8
8
8
8
8
8
8
8
8
8
8
8
8
8
8
8
8
8
8
8
8
8
8
8
8
8
8
8
8
8
8
8
8
8
8
8
8
8
8
8
8
8
8
8
8
8
8
8
8
8
8
8
8
8
8
8
8
8
8
8
CELL_DATA 64
VECTORS vector_value float
0.300173 -1.97729 0
0.0933334 -1.74507 0
0.0425606 -2.62115 0
-0.333871 -0.990058 0
-0.530579 -0.729883 0
-0.468951 -0.510982 0
0.0805154 -1.18299 0
0.122761 -2.27563 0
0.0283554 -1.30719 0
0.00888905 -1.34019 0
-0.0254079 -0.409373 0
0.283001 -0.779668 0
-0.0986911 -1.41874 0
0.530987 -1.2345 0
-0.0316942 -0.170504 0
-0.307734 -0.50553 0
0.0434917 -1.19578 0
-0.0584948 -1.11984 0
0.0572083 -1.37127 0
-0.255848 -1.34131 0
-0.121273 -0.763414 0
0.19067 -1.45271 0
0.14843 -0.956079 0
0.104299 -1.50159 0
-0.016044 -0.448843 0
0.0113054 -0.95806 0
-0.218114 -0.637456 0
0.0303486 -1.07555 0
-0.0820465 -0.524215 0
-0.118907 -0.700127 0
0.0247451 -0.953794 0
-0.106542 -0.437268 0
-0.0159875 -0.047391 0
-0.148386 -0.795935 0
-0.21962 -0.958429 0
0.0387008 -0.634105 0
-0.0776053 -0.147421 0
0.00876808 -0.149429 0
-0.0996153 -1.10642 0
-0.231116 -0.638465 0
-0.00881802 -0.888138 0
0.0438109 -0.0902516 0
-0.32331 -1.55254 0
0.0103368 -0.618489 0
-0.349206 -0.951266 0
-0.0620334 -1.00627 0
-0.0398718 -0.826358 0
-0.458983 -2.39035 0
-0.823452 -0.593198 0
-0.0774906 -0.17969 0
0.0246018 -2.13205 0
-0.136322 -1.41456 0
-0.625619 -1.74834 0
0.0545409 -2.34455 0
-0.132907 -0.193896 0
-0.0957342 -1.17418 0
-0.0252396 -0.771619 0
0.0382821 -0.47862 0
0.280437 -2.44662 0
-0.139922 -0.107141 0
-0.397291 -0.569038 0
0.246537 -1.41942 0
-0.46065 -0.761118 0
0.0128428 -0.228646 0
