# vtk DataFile Version 2.0
Unstructured Grid by M++
ASCII
DATASET UNSTRUCTURED_GRID
POINTS 81 float
  1.000000   0.625000 0
  0.750000   0.375000 0
  1.000000   0.000000 0
  0.875000   0.875000 0
  0.750000   0.125000 0
  1.000000   1.000000 0
  0.875000   0.250000 0
  0.625000   0.875000 0
  1.000000   0.750000 0
  0.875000   0.000000 0
  1.000000   0.250000 0
  0.625000   0.375000 0
  0.875000   0.500000 0
  0.625000   0.625000 0
  1.000000   0.500000 0
  0.750000   0.500000 0
  0.750000   1.000000 0
  1.000000   0.125000 0
  0.625000   0.250000 0
  0.750000   0.750000 0
  0.625000   0.000000 0
  0.125000   0.375000 0
  0.000000   0.500000 0
  0.125000   0.625000 0
  0.625000   1.000000 0
  1.000000   0.875000 0
  0.875000   0.125000 0
  0.500000   0.250000 0
  0.625000   0.500000 0
  0.250000   0.625000 0
  0.000000   0.625000 0
  0.375000   0.500000 0
  0.375000   0.000000 0
  0.000000   0.125000 0
  0.125000   0.875000 0
  0.875000   1.000000 0
  0.750000   0.250000 0
  0.375000   0.375000 0
  0.250000   0.375000 0
  0.625000   0.750000 0
  0.125000   0.125000 0
  0.500000   0.000000 0
  0.250000   0.875000 0
  0.125000   0.500000 0
  0.500000   0.375000 0
  0.125000   0.000000 0
  0.250000   0.750000 0
  0.250000   0.500000 0
  0.000000   0.875000 0
  0.875000   0.625000 0
  0.500000   0.750000 0
  0.750000   0.625000 0
  0.250000   0.000000 0
  0.375000   0.750000 0
  0.750000   0.875000 0
  0.625000   0.125000 0
  0.250000   0.250000 0
  0.375000   1.000000 0
  0.375000   0.250000 0
  0.000000   0.375000 0
  0.500000   1.000000 0
  0.875000   0.750000 0
  0.750000   0.000000 0
  0.375000   0.125000 0
  0.500000   0.875000 0
  0.000000   0.000000 0
  0.125000   0.750000 0
  0.500000   0.625000 0
  0.125000   0.250000 0
  0.500000   0.125000 0
  0.250000   1.000000 0
  0.250000   0.125000 0
  0.000000   1.000000 0
  0.375000   0.875000 0
  0.000000   0.750000 0
  0.375000   0.625000 0
  0.000000   0.250000 0
  0.125000   1.000000 0
  1.000000   0.375000 0
  0.500000   0.500000 0
  0.875000   0.375000 0
CELLS 64 320
4 56 71 58 63
4 27 58 69 63
4 41 69 32 63
4 76 33 68 40
4 27 44 58 37
4 79 31 44 37
4 56 38 68 21
4 56 58 38 37
4 52 32 71 63
4 47 38 31 37
4 76 68 59 21
4 22 59 43 21
4 65 45 33 40
4 47 43 38 21
4 52 71 45 40
4 56 68 71 40
4 74 30 66 23
4 46 66 29 23
4 22 43 30 23
4 72 48 77 34
4 46 53 42 73
4 50 64 53 73
4 70 42 57 73
4 74 66 48 34
4 46 42 66 34
4 47 29 43 23
4 70 77 42 34
4 60 57 64 73
4 79 67 31 75
4 47 31 29 75
4 50 53 67 75
4 46 29 53 75
4 10 78 6 80
4 36 6 1 80
4 15 1 12 80
4 36 4 6 26
4 14 12 78 80
4 2 17 9 26
4 36 18 4 55
4 15 28 1 11
4 62 4 20 55
4 10 6 17 26
4 27 18 44 11
4 62 9 4 26
4 27 69 18 55
4 36 1 18 11
4 41 20 69 55
4 79 44 28 11
4 16 24 54 7
4 19 54 39 7
4 50 39 64 7
4 8 25 61 3
4 60 64 24 7
4 79 28 67 13
4 19 51 61 49
4 8 61 0 49
4 15 51 28 13
4 19 39 51 13
4 50 67 39 13
4 19 61 54 3
4 14 0 12 49
4 5 35 25 3
4 15 12 51 49
4 16 54 35 3
CELL_TYPES 64
8
8
8
8
8
8
8
8
8
8
8
8
8
8
8
8
8
8
8
8
8
8
8
8
8
8
8
8
8
8
8
8
8
8
8
8
8
8
8
8
8
8
8
8
8
8
8
8
8
8
8
8
8
8
8
8
8
8
8
8
8
8
8
8
CELL_DATA 64
VECTORS vector_value float
-0.0360259 -0.515392 0
0.295674 -0.258378 0
0.00300007 -0.0414175 0
-0.305276 -2.65001 0
0.490217 -0.727884 0
0.232493 -0.531773 0
-0.248416 -0.721073 0
0.206099 -0.916769 0
-0.00180726 -0.370023 0
0.231238 -0.895427 0
-0.493444 -2.08067 0
-0.538175 -0.696813 0
-0.0192921 -2.96985 0
-0.756473 -2.52091 0
-0.00807111 -0.119538 0
-0.401372 -0.34303 0
0.624754 -1.29491 0
0.293986 -0.857321 0
0.047957 -0.229763 0
-0.174706 -1.23374 0
0.0229053 -0.0696901 0
-0.63326 -2.2312 0
0.161147 -0.187021 0
-0.129959 -1.57572 0
-0.0792727 -0.706745 0
0.02302 -2.28415 0
-0.354369 -1.05613 0
0.31087 -1.38775 0
-0.140583 -0.453472 0
-0.570298 -1.80152 0
-0.538035 -0.863 0
-0.787963 -1.57423 0
-0.356284 -1.54362 0
-0.0597359 -1.22051 0
0.106137 -0.553277 0
-0.277452 -2.16009 0
-0.024848 -1.84055 0
-0.00873509 -0.50339 0
0.425602 -0.798006 0
0.168123 -0.664062 0
0.0283428 -1.1612 0
-0.283128 -0.845987 0
0.234279 -0.160097 0
-0.0128923 -2.57243 0
0.766986 -0.429104 0
0.38769 -0.62937 0
0.0205178 -0.262146 0
0.214301 -0.29718 0
-0.190324 -0.702454 0
0.297643 -0.998043 0
-0.0710782 -0.315159 0
0.374491 -1.40265 0
-0.213645 -1.49357 0
0.039945 -0.247022 0
-0.00546976 -0.330678 0
0.138417 -2.04081 0
0.0656634 -0.780071 0
-0.0215945 -0.436913 0
-0.119792 -0.60214 0
0.70363 -0.700792 0
-0.0122785 -1.84998 0
-0.0773954 -0.853342 0
-0.0833103 -0.354019 0
-0.0834495 -1.086 0
