# vtk DataFile Version 2.0
Unstructured Grid by M++
ASCII
DATASET UNSTRUCTURED_GRID
POINTS 1089 float
  0.718750   0.687500 0
  0.750000   0.687500 0
  0.718750   0.656250 0
  0.750000   0.718750 0
  0.625000   0.562500 0
  0.625000   0.593750 0
  0.656250   0.593750 0
  0.750000   0.750000 0
  0.687500   0.656250 0
  0.687500   0.625000 0
  0.656250   0.625000 0
  0.906250   0.593750 0
  1.000000   0.968750 0
  0.750000   0.968750 0
  0.718750   0.968750 0
  0.718750   1.000000 0
  0.750000   1.000000 0
  0.906250   0.906250 0
  0.843750   0.531250 0
  0.656250   0.937500 0
  0.656250   0.906250 0
  0.562500   0.812500 0
  0.562500   0.843750 0
  0.593750   0.875000 0
  0.593750   0.843750 0
  0.812500   0.718750 0
  0.625000   0.625000 0
  0.968750   0.875000 0
  0.531250   0.875000 0
  0.625000   0.937500 0
  0.562500   0.562500 0
  0.906250   0.812500 0
  0.531250   0.781250 0
  0.562500   0.593750 0
  0.906250   0.843750 0
  0.625000   0.656250 0
  0.968750   0.906250 0
  0.687500   0.968750 0
  0.812500   0.812500 0
  0.687500   1.000000 0
  0.687500   0.687500 0
  0.937500   0.843750 0
  0.593750   0.593750 0
  1.000000   0.625000 0
  0.968750   0.593750 0
  0.906250   0.875000 0
  0.968750   0.625000 0
  0.625000   0.875000 0
  0.875000   0.875000 0
  0.625000   0.906250 0
  0.875000   0.843750 0
  0.531250   0.812500 0
  0.968750   0.562500 0
  0.593750   0.625000 0
  0.937500   0.875000 0
  0.656250   0.687500 0
  1.000000   0.937500 0
  0.875000   0.562500 0
  0.687500   0.937500 0
  0.937500   0.625000 0
  0.812500   0.781250 0
  0.937500   0.562500 0
  0.875000   0.781250 0
  0.531250   0.531250 0
  0.718750   0.937500 0
  0.968750   0.937500 0
  0.906250   0.562500 0
  0.843750   0.781250 0
  0.593750   0.562500 0
  1.000000   0.906250 0
  0.656250   0.656250 0
  0.937500   0.906250 0
  0.875000   0.531250 0
  0.812500   0.750000 0
  0.656250   0.968750 0
  0.937500   0.531250 0
  0.843750   0.812500 0
  0.906250   0.531250 0
  0.843750   0.750000 0
  0.937500   0.593750 0
  0.875000   0.812500 0
  0.531250   0.562500 0
  1.000000   0.593750 0
  0.562500   0.906250 0
  0.562500   0.531250 0
  0.593750   0.906250 0
  0.593750   0.937500 0
  0.562500   0.875000 0
  0.781250   0.750000 0
  0.781250   0.781250 0
  0.593750   0.531250 0
  1.000000   0.687500 0
  0.531250   0.843750 0
  0.718750   0.718750 0
  0.781250   0.718750 0
  0.781250   0.687500 0
  1.000000   0.656250 0
  0.968750   0.656250 0
  0.843750   0.843750 0
  0.781250   1.000000 0
  0.656250   0.312500 0
  0.531250   0.250000 0
  0.875000   0.500000 0
  0.531250   0.218750 0
  0.875000   0.468750 0
  0.531250   0.156250 0
  0.593750   0.812500 0
  0.093750   0.562500 0
  0.656250   0.562500 0
  0.156250   0.312500 0
  0.031250   0.812500 0
  0.125000   1.000000 0
  0.312500   0.250000 0
  0.250000   0.500000 0
  0.375000   0.000000 0
  0.187500   0.750000 0
  0.812500   0.906250 0
  0.312500   0.656250 0
  0.250000   0.906250 0
  0.875000   0.656250 0
  0.375000   0.406250 0
  0.750000   0.843750 0
  0.250000   0.593750 0
  0.187500   0.843750 0
  0.812500   0.593750 0
  0.312500   0.343750 0
  0.625000   0.968750 0
  0.125000   0.718750 0
  0.687500   0.718750 0
  0.187500   0.468750 0
  0.062500   0.968750 0
  0.125000   0.656250 0
  0.187500   0.406250 0
  0.250000   0.156250 0
  0.062500   0.906250 0
  0.468750   0.906250 0
  0.656250   0.156250 0
  0.468750   0.812500 0
  0.593750   0.312500 0
  0.656250   0.062500 0
  0.625000   0.812500 0
  0.125000   0.562500 0
  0.687500   0.562500 0
  0.187500   0.312500 0
  0.062500   0.812500 0
  0.562500   0.937500 0
  0.062500   0.687500 0
  0.625000   0.687500 0
  0.125000   0.437500 0
  0.000000   0.937500 0
  0.062500   0.625000 0
  0.187500   0.125000 0
  0.125000   0.375000 0
  0.000000   0.875000 0
  0.406250   0.875000 0
  0.468750   0.625000 0
  0.593750   0.125000 0
  0.812500   0.937500 0
  0.312500   0.687500 0
  0.250000   0.937500 0
  0.875000   0.687500 0
  0.375000   0.437500 0
  0.750000   0.875000 0
  0.250000   0.625000 0
  0.187500   0.875000 0
  0.812500   0.625000 0
  0.312500   0.375000 0
  0.468750   0.781250 0
  0.593750   0.281250 0
  0.656250   0.031250 0
  0.625000   0.781250 0
  0.125000   0.531250 0
  0.062500   0.781250 0
  0.687500   0.531250 0
  0.187500   0.281250 0
  0.500000   0.812500 0
  0.687500   0.062500 0
  0.625000   0.312500 0
  0.656250   0.812500 0
  0.156250   0.562500 0
  0.718750   0.562500 0
  0.218750   0.312500 0
  0.093750   0.812500 0
  0.437500   0.968750 0
  0.625000   0.218750 0
  0.500000   0.781250 0
  0.687500   0.031250 0
  0.625000   0.281250 0
  0.656250   0.781250 0
  0.156250   0.531250 0
  0.718750   0.531250 0
  0.218750   0.281250 0
  0.093750   0.781250 0
  0.062500   0.562500 0
  0.125000   0.312500 0
  0.187500   0.062500 0
  0.000000   0.812500 0
  0.406250   0.812500 0
  0.968750   0.812500 0
  0.468750   0.562500 0
  0.593750   0.062500 0
  0.218750   0.687500 0
  0.156250   0.937500 0
  0.281250   0.437500 0
  0.062500   0.843750 0
  0.687500   0.593750 0
  0.187500   0.343750 0
  0.625000   0.843750 0
  0.125000   0.593750 0
  0.312500   0.843750 0
  0.437500   0.343750 0
  0.500000   0.093750 0
  0.375000   0.593750 0
  0.312500   0.906250 0
  0.937500   0.656250 0
  0.437500   0.406250 0
  0.875000   0.906250 0
  0.375000   0.656250 0
  0.062500   0.875000 0
  0.187500   0.375000 0
  0.250000   0.125000 0
  0.125000   0.625000 0
  0.093750   0.656250 0
  0.031250   0.906250 0
  0.218750   0.156250 0
  0.156250   0.406250 0
  0.593750   0.968750 0
  0.093750   0.718750 0
  0.031250   0.968750 0
  0.656250   0.718750 0
  0.156250   0.468750 0
  0.437500   0.906250 0
  0.625000   0.156250 0
  0.718750   0.812500 0
  0.218750   0.562500 0
  0.781250   0.562500 0
  0.281250   0.312500 0
  0.156250   0.812500 0
  0.062500   0.656250 0
  0.000000   0.906250 0
  0.187500   0.156250 0
  0.125000   0.406250 0
  0.562500   0.968750 0
  0.062500   0.718750 0
  0.000000   0.968750 0
  0.625000   0.718750 0
  0.125000   0.468750 0
  0.406250   0.968750 0
  0.968750   0.968750 0
  0.468750   0.718750 0
  0.531250   0.468750 0
  0.593750   0.218750 0
  0.406250   0.906250 0
  0.468750   0.656250 0
  0.593750   0.156250 0
  0.687500   0.781250 0
  0.187500   0.531250 0
  0.750000   0.531250 0
  0.250000   0.281250 0
  0.125000   0.781250 0
  0.781250   0.906250 0
  0.281250   0.656250 0
  0.218750   0.906250 0
  0.843750   0.656250 0
  0.343750   0.406250 0
  0.750000   0.906250 0
  0.250000   0.656250 0
  0.187500   0.906250 0
  0.812500   0.656250 0
  0.312500   0.406250 0
  0.875000   0.406250 0
  0.375000   0.156250 0
  0.812500   0.968750 0
  0.312500   0.718750 0
  0.250000   0.968750 0
  0.875000   0.718750 0
  0.375000   0.468750 0
  0.781250   0.937500 0
  0.281250   0.687500 0
  0.218750   0.937500 0
  0.843750   0.687500 0
  0.343750   0.437500 0
  0.718750   0.875000 0
  0.218750   0.625000 0
  0.156250   0.875000 0
  0.781250   0.625000 0
  0.281250   0.375000 0
  0.750000   0.937500 0
  0.250000   0.687500 0
  0.187500   0.937500 0
  0.875000   0.437500 0
  0.375000   0.187500 0
  0.812500   0.687500 0
  0.312500   0.437500 0
  0.687500   0.875000 0
  0.187500   0.625000 0
  0.750000   0.625000 0
  0.250000   0.375000 0
  0.125000   0.875000 0
  0.812500   1.000000 0
  0.312500   0.750000 0
  0.250000   1.000000 0
  0.875000   0.750000 0
  0.375000   0.500000 0
  0.562500   1.000000 0
  0.062500   0.750000 0
  0.000000   1.000000 0
  0.625000   0.750000 0
  0.125000   0.500000 0
  0.406250   1.000000 0
  0.968750   1.000000 0
  0.468750   0.750000 0
  0.656250   0.000000 0
  0.531250   0.500000 0
  0.593750   0.250000 0
  0.406250   0.937500 0
  0.468750   0.687500 0
  0.593750   0.187500 0
  0.687500   0.812500 0
  0.187500   0.562500 0
  0.750000   0.562500 0
  0.250000   0.312500 0
  0.125000   0.812500 0
  0.437500   0.843750 0
  0.625000   0.093750 0
  0.093750   0.593750 0
  0.156250   0.343750 0
  0.218750   0.093750 0
  0.031250   0.843750 0
  0.281250   0.937500 0
  0.843750   0.937500 0
  0.343750   0.687500 0
  0.906250   0.687500 0
  0.406250   0.437500 0
  0.156250   0.968750 0
  0.218750   0.718750 0
  0.281250   0.468750 0
  0.343750   0.218750 0
  0.156250   1.000000 0
  0.406250   0.000000 0
  0.281250   0.500000 0
  0.343750   0.250000 0
  0.218750   0.750000 0
  0.187500   0.968750 0
  0.250000   0.718750 0
  0.375000   0.218750 0
  0.312500   0.468750 0
  0.187500   1.000000 0
  0.312500   0.500000 0
  0.375000   0.250000 0
  0.437500   0.000000 0
  0.250000   0.750000 0
  0.031250   0.781250 0
  0.656250   0.531250 0
  0.156250   0.281250 0
  0.593750   0.781250 0
  0.093750   0.531250 0
  0.000000   0.781250 0
  0.625000   0.531250 0
  0.125000   0.281250 0
  0.562500   0.781250 0
  0.062500   0.531250 0
  0.781250   0.968750 0
  0.281250   0.718750 0
  0.218750   0.968750 0
  0.843750   0.718750 0
  0.343750   0.468750 0
  0.281250   0.968750 0
  0.843750   0.968750 0
  0.343750   0.718750 0
  0.906250   0.718750 0
  0.406250   0.468750 0
  0.281250   1.000000 0
  0.906250   0.750000 0
  0.406250   0.500000 0
  0.843750   1.000000 0
  0.343750   0.750000 0
  0.531250   0.000000 0
  0.718750   0.843750 0
  0.218750   0.593750 0
  0.156250   0.843750 0
  0.781250   0.593750 0
  0.281250   0.343750 0
  0.687500   0.843750 0
  0.187500   0.593750 0
  0.750000   0.593750 0
  0.250000   0.343750 0
  0.125000   0.843750 0
  0.218750   0.875000 0
  0.843750   0.625000 0
  0.343750   0.375000 0
  0.781250   0.875000 0
  0.281250   0.625000 0
  0.156250   0.906250 0
  0.781250   0.656250 0
  0.281250   0.406250 0
  0.718750   0.906250 0
  0.218750   0.656250 0
  0.031250   1.000000 0
  0.656250   0.750000 0
  0.156250   0.500000 0
  0.593750   1.000000 0
  0.093750   0.750000 0
  0.218750   1.000000 0
  0.343750   0.500000 0
  0.468750   0.000000 0
  0.406250   0.250000 0
  0.281250   0.750000 0
  0.593750   0.406250 0
  0.093750   0.156250 0
  0.531250   0.656250 0
  0.031250   0.406250 0
[...]
CELL_DATA 1024
SCALARS scalar_value float 1
LOOKUP_TABLE default
1.48345
1.91102
1.9719
16.8988
12.0095
10.4338
3.43084
3.71699
3.80353
3.16978
2.65201
4.13744
8.37678
4.88957
5.56066
6.28371
6.47279
10.5289
6.08518
6.00621
5.53955
4.36087
4.93295
5.6731
4.98281
4.26101
3.23584
4.26913
12.6111
1.66184
1.70669
1.25072
2.05209
2.36131
3.7274
2.96755
5.60294
4.06982
3.99292
21.5485
6.74907
8.45306
3.04914
8.4901
15.8446
3.25452
16.3586
14.2576
1.78129
6.43219
12.5194
5.13214
3.88993
16.1007
4.80229
18.8209
8.30896
9.10827
6.24104
0.426216
6.90472
2.81668
5.7312
4.50035
3.08415
0.963261
0.430847
5.12875
10.413
3.44933
13.5641
8.79841
0.28983
0.750205
3.40556
7.73507
2.17453
3.93017
6.2394
0.962176
0.531959
0.278069
1.44071
0.743371
5.7727
4.29115
1.22793
0.637017
0.242862
10.8994
7.72094
0.29174
0.479899
3.21803
1.16938
0.943295
1.42885
2.1343
1.18378
0.683709
20.4373
0.877039
8.13866
1.32311
4.03751
7.38218
0.996583
21.1651
9.59622
0.291295
1.29308
2.96898
2.80278
2.28769
1.73765
4.27974
7.40849
0.558547
8.19507
0.383024
8.95405
1.93456
12.2937
6.63824
0.502486
0.307169
9.38106
4.7546
2.14608
3.19523
5.05196
1.69777
6.14555
0.664057
6.766
3.19831
2.05091
1.42092
7.26929
8.78484
3.24289
0.333123
2.34426
7.46862
2.75609
3.56447
1.32285
0.505344
0.477285
7.59175
0.434963
0.348974
11.7356
3.18415
7.02961
3.64634
7.42819
4.43678
5.32245
0.42033
7.67961
6.54645
4.04379
9.7266
3.38945
0.415139
1.89135
10.847
5.68426
7.75361
22.9725
1.19476
1.83357
1.89275
2.97198
2.61629
3.58175
2.46401
0.279633
3.50934
4.39766
25.7746
0.634416
4.97267
6.31043
0.697009
5.96738
4.38149
0.370844
2.97198
3.10894
1.25209
4.45448
7.08201
11.375
1.97126
2.65332
0.934275
5.75153
6.29157
0.860901
6.21657
3.19954
0.985598
0.355451
7.1576
4.21512
7.5048
3.8731
4.35116
3.9865
8.54138
5.5193
2.26458
3.72525
2.94387
3.22537
7.91146
7.13516
1.39129
7.97064
15.1055
0.73189
0.568072
0.852801
1.80108
2.06907
1.5038
12.4881
1.27379
0.850264
1.40371
16.2739
2.04858
0.94748
0.881667
11.4996
3.02805
18.929
0.370755
11.3064
1.77693
4.15092
0.667051
6.96727
0.598434
3.74601
3.21466
4.97832
3.39515
5.82508
5.37824
0.600786
0.899944
0.58185
0.381581
2.2734
3.47382
1.24822
1.00746
1.76591
2.35925
10.9162
5.7344
7.31378
0.93034
0.914914
1.31082
1.16494
4.81042
6.81007
0.472391
0.577501
0.538525
0.294386
1.10176
0.382055
0.328977
0.177272
0.169695
1.1833
1.1062
2.70514
5.95413
0.413212
2.41924
0.906858
2.02345
0.360938
1.88399
2.50157
2.42887
3.15147
2.28859
1.11635
2.36083
0.982968
3.25436
0.631233
0.613142
0.268693
2.18041
0.388422
0.327895
2.62136
0.484559
0.417176
0.548976
0.591157
2.71485
1.09648
8.52312
1.20956
0.835278
0.789694
2.67712
2.95542
8.19833
0.693213
12.0283
4.16678
1.2317
1.1933
12.6945
0.525896
3.17179
14.3634
4.36535
0.54928
2.48053
1.14431
4.34232
0.85367
2.07575
0.610107
4.98016
0.906215
0.34107
2.77699
0.683856
0.658009
1.15198
0.578134
1.64133
0.476519
0.809023
1.23972
2.42157
0.531172
2.76022
0.461005
0.172833
2.19967
0.405691
2.35254
1.02716
1.20456
2.14579
8.72089
0.477291
4.23019
3.33169
0.241728
0.597241
0.555127
1.36439
4.35511
0.688886
1.48966
2.11537
1.67059
1.10165
4.33522
0.743359
1.76707
1.29663
2.89829
6.38366
2.38156
1.34124
0.917458
2.62238
6.21442
0.564019
1.21661
0.562363
1.70211
4.65659
1.94236
2.55679
2.06539
2.54289
8.51178
2.03616
0.48848
1.14685
1.35465
0.646879
2.00771
0.42629
3.00481
1.7244
0.944858
2.26828
0.982019
0.645577
2.52182
2.28167
2.89902
0.646694
2.9266
2.24522
2.25377
0.421853
0.235055
1.37824
0.363697
0.292055
1.48733
0.288867
0.597519
0.284394
3.34471
0.793731
0.466626
2.46161
1.03527
2.30176
8.38812
3.37002
0.692319
2.26277
4.10967
0.780532
2.67473
1.75418
3.35596
0.691606
1.1771
1.44452
0.421022
0.628679
1.41519
0.428688
0.539763
0.755762
2.43144
2.29372
0.926379
1.1772
1.21931
2.66686
1.09645
0.829044
3.54533
0.850539
1.38767
0.670276
3.42404
0.733427
1.54071
1.78469
2.1401
2.17615
1.60831
2.3274
1.74259
0.781587
0.925609
2.76259
1.06748
2.85685
1.06248
2.69617
1.30149
2.35463
1.92708
0.79637
2.22577
0.721029
1.60247
1.62793
3.52724
0.32747
4.67256
0.219806
0.223475
5.81165
0.282749
4.69722
3.27553
3.58316
5.11779
1.58788
1.11965
0.654156
1.27666
1.86661
0.564484
1.27461
2.10672
0.887276
1.91115
1.33618
1.33717
5.77959
0.557031
1.88969
1.96599
1.59835
2.40603
1.85448
5.91611
5.21874
6.98268
12.9623
18.5146
3.37685
2.74407
2.20236
2.69818
20.0231
21.4714
1.73289
20.7539
27.0156
2.20834
2.4468
1.8428
2.4052
3.58877
9.44544
12.2679
4.47038
6.88975
4.42559
3.23997
1.68031
2.37107
2.27091
1.55128
3.99528
2.81637
7.46638
14.9065
4.19503
4.85284
10.1387
4.29566
3.11915
6.67466
3.00479
6.28309
3.20227
8.35396
4.39856
3.67143
3.51536
1.10761
6.60801
4.32368
5.21981
3.22733
3.02848
9.18924
5.42603
2.84311
9.07638
2.13168
1.76152
1.08352
10.7493
6.05457
10.4921
1.06249
1.46665
11.5363
3.72109
14.5936
2.43729
2.05348
0.96619
2.07145
1.45484
6.18388
8.99454
18.9832
2.00988
1.04503
6.69658
2.62147
5.34937
16.6064
2.43656
2.07364
7.12079
2.77107
5.84886
2.47991
11.9527
10.1656
3.72481
2.01795
5.99924
3.1809
7.47495
6.70284
1.98964
3.29324
17.8246
10.664
2.20144
3.22804
7.92999
2.25949
1.45386
13.6439
11.2402
1.75495
7.25026
6.85799
6.45602
19.8812
5.82291
1.36039
7.04503
18.6464
2.98945
3.52873
2.94659
20.3341
9.32881
2.04189
9.17298
1.40827
4.32539
1.46554
15.1537
8.19318
3.41128
6.28435
8.85735
1.88956
8.10642
1.87254
8.13918
2.32911
2.45367
1.70644
13.5687
15.1803
1.39879
9.10166
4.98287
1.60396
9.66983
12.2541
9.09007
3.03957
9.39559
14.9813
12.1104
11.7169
4.85189
10.6718
5.36351
2.39375
1.93374
8.04888
2.44091
5.9568
1.96566
6.18388
2.24201
7.30345
2.63468
2.63233
2.55932
2.69821
3.86614
3.09037
5.29041
3.68793
4.06368
2.39101
2.2988
1.93755
25.9388
2.90647
2.60829
1.95079
13.1621
19.2886
3.16269
1.92582
8.93548
19.0008
2.81526
2.15315
1.7947
14.9056
20.4914
2.82617
7.78165
4.43707
0.501349
9.2711
0.870817
8.40058
8.52198
1.12078
4.75549
6.29544
0.661711
5.6854
5.42334
6.22225
4.91194
13.2074
6.09655
5.19545
3.95284
5.00633
9.41628
3.99147
3.89221
3.38994
5.31708
4.10008
11.8556
3.12924
2.35513
2.50751
1.50638
12.075
1.82536
1.59671
15.4276
2.67271
2.72729
7.72019
2.63329
3.94205
2.4855
3.34356
1.58278
3.9305
1.53133
17.7544
13.356
6.44472
1.31074
5.5188
0.691986
7.51982
8.73083
0.998392
9.58064
1.39178
3.27024
4.54827
4.93319
4.54826
1.27584
1.34376
2.14087
1.38461
1.2603
0.652676
0.962021
0.921254
1.14004
1.35572
1.03677
0.887876
1.56832
1.62724
1.47112
2.34592
2.037
2.47481
1.46252
1.77875
2.45702
1.75489
1.48798
1.41051
1.66141
2.14121
7.2799
0.42954
2.70854
0.0915634
1.4288
1.0802
0.784817
10.4084
0.585828
2.01253
0.101685
1.43109
0.948582
1.75638
0.788807
2.84187
8.3819
0.141562
2.30311
0.994646
2.10653
4.4909
0.124549
2.04733
1.27594
2.93658
1.38416
1.20384
1.00556
0.848612
0.794013
0.532578
1.54237
0.874791
0.200854
0.647935
1.27504
1.53579
0.239727
1.05823
3.80135
0.734985
2.55655
0.806207
3.28411
1.64341
1.54613
1.12525
0.838712
0.460409
4.10111
1.84514
2.01938
1.01429
1.10574
1.06574
0.555963
0.458207
1.46111
2.10203
1.29069
0.63336
1.65059
1.62909
1.01021
0.762562
1.94581
0.142419
0.714167
0.945707
1.02434
0.308063
9.55291
1.72824
0.552778
4.66937
0.920096
0.585636
0.450406
0.240326
0.150969
0.859305
0.281944
3.82178
1.21309
0.3187
0.869439
0.863736
0.259603
0.39396
0.396406
0.182956
0.939079
3.70651
0.743772
4.08503
0.443373
0.370947
1.3214
0.264638
1.92498
1.74527
5.82013
0.33959
1.29005
0.326478
0.370388
1.21
1.51953
0.556256
1.0499
0.352373
1.04405
9.87945
0.892098
0.231253
1.19216
1.14975
0.980231
0.352798
0.880227
0.234142
0.204651
0.47956
3.36103
0.768703
0.311886
0.548595
0.517588
1.07702
0.196125
0.265204
0.688894
0.118372
1.07031
0.985606
0.134148
1.19173
1.0385
0.274543
1.39083
1.11608
0.701404
0.913003
1.49179
0.651643
0.363684
2.36923
0.548659
2.00262
0.653328
1.87079
2.43698
0.461384
2.19137
0.598256
0.506139
1.56016
1.04674
0.398837
0.599199
1.43426
1.53744
1.8904
0.731921
1.68273
2.80673
0.43617
1.33501
1.93431
0.233379
1.19783
1.48258
0.368203
1.53633
0.694551
0.196627
0.538417
1.06025
1.28171
0.369822
0.638501
0.567308
1.44141
0.599171
0.376203
0.630063
0.868139
0.515811
0.591618
0.431461
1.42223
0.425412
0.617726
0.883852
0.601577
0.642127
0.522926
2.43016
0.989966
0.306424
2.2813
0.280186
2.51297
0.517089
1.91993
3.39857
0.479639
0.467686
1.77776
1.46801
1.65984
2.19019
1.12821
0.877683
1.05265
0.723008
0.444713
0.511472
0.34914
1.83343
6.1248
3.95709
1.84515
2.29531
0.208099
0.39182
1.25624
1.16857
0.216648
0.456262
0.449116
0.228723
0.37141
0.308764
