# vtk DataFile Version 2.0
Unstructured Grid by M++
ASCII
DATASET UNSTRUCTURED_GRID
POINTS 1089 float
  0.718750   0.687500 0
  0.750000   0.687500 0
  0.718750   0.656250 0
  0.750000   0.718750 0
  0.625000   0.562500 0
  0.625000   0.593750 0
  0.656250   0.593750 0
  0.750000   0.750000 0
  0.687500   0.656250 0
  0.687500   0.625000 0
  0.656250   0.625000 0
  0.906250   0.593750 0
  1.000000   0.968750 0
  0.750000   0.968750 0
  0.718750   0.968750 0
  0.718750   1.000000 0
  0.750000   1.000000 0
  0.906250   0.906250 0
  0.843750   0.531250 0
  0.656250   0.937500 0
  0.656250   0.906250 0
  0.562500   0.812500 0
  0.562500   0.843750 0
  0.593750   0.875000 0
  0.593750   0.843750 0
  0.812500   0.718750 0
  0.625000   0.625000 0
  0.968750   0.875000 0
  0.531250   0.875000 0
  0.625000   0.937500 0
  0.562500   0.562500 0
  0.906250   0.812500 0
  0.531250   0.781250 0
  0.562500   0.593750 0
  0.906250   0.843750 0
  0.625000   0.656250 0
  0.968750   0.906250 0
  0.687500   0.968750 0
  0.812500   0.812500 0
  0.687500   1.000000 0
  0.687500   0.687500 0
  0.937500   0.843750 0
  0.593750   0.593750 0
  1.000000   0.625000 0
  0.968750   0.593750 0
  0.906250   0.875000 0
  0.968750   0.625000 0
  0.625000   0.875000 0
  0.875000   0.875000 0
  0.625000   0.906250 0
  0.875000   0.843750 0
  0.531250   0.812500 0
  0.968750   0.562500 0
  0.593750   0.625000 0
  0.937500   0.875000 0
  0.656250   0.687500 0
  1.000000   0.937500 0
  0.875000   0.562500 0
  0.687500   0.937500 0
  0.937500   0.625000 0
  0.812500   0.781250 0
  0.937500   0.562500 0
  0.875000   0.781250 0
  0.531250   0.531250 0
  0.718750   0.937500 0
  0.968750   0.937500 0
  0.906250   0.562500 0
  0.843750   0.781250 0
  0.593750   0.562500 0
  1.000000   0.906250 0
  0.656250   0.656250 0
  0.937500   0.906250 0
  0.875000   0.531250 0
  0.812500   0.750000 0
  0.656250   0.968750 0
  0.937500   0.531250 0
  0.843750   0.812500 0
  0.906250   0.531250 0
  0.843750   0.750000 0
  0.937500   0.593750 0
  0.875000   0.812500 0
  0.531250   0.562500 0
  1.000000   0.593750 0
  0.562500   0.906250 0
  0.562500   0.531250 0
  0.593750   0.906250 0
  0.593750   0.937500 0
  0.562500   0.875000 0
  0.781250   0.750000 0
  0.781250   0.781250 0
  0.593750   0.531250 0
  1.000000   0.687500 0
  0.531250   0.843750 0
  0.718750   0.718750 0
  0.781250   0.718750 0
  0.781250   0.687500 0
  1.000000   0.656250 0
  0.968750   0.656250 0
  0.843750   0.843750 0
  0.781250   1.000000 0
  0.656250   0.312500 0
  0.531250   0.250000 0
  0.875000   0.500000 0
  0.531250   0.218750 0
  0.875000   0.468750 0
  0.531250   0.156250 0
  0.593750   0.812500 0
  0.093750   0.562500 0
  0.656250   0.562500 0
  0.156250   0.312500 0
  0.031250   0.812500 0
  0.125000   1.000000 0
  0.312500   0.250000 0
  0.250000   0.500000 0
  0.375000   0.000000 0
  0.187500   0.750000 0
  0.812500   0.906250 0
  0.312500   0.656250 0
  0.250000   0.906250 0
  0.875000   0.656250 0
  0.375000   0.406250 0
  0.750000   0.843750 0
  0.250000   0.593750 0
  0.187500   0.843750 0
  0.812500   0.593750 0
  0.312500   0.343750 0
  0.625000   0.968750 0
  0.125000   0.718750 0
  0.687500   0.718750 0
  0.187500   0.468750 0
  0.062500   0.968750 0
  0.125000   0.656250 0
  0.187500   0.406250 0
  0.250000   0.156250 0
  0.062500   0.906250 0
  0.468750   0.906250 0
  0.656250   0.156250 0
  0.468750   0.812500 0
  0.593750   0.312500 0
  0.656250   0.062500 0
  0.625000   0.812500 0
  0.125000   0.562500 0
  0.687500   0.562500 0
  0.187500   0.312500 0
  0.062500   0.812500 0
  0.562500   0.937500 0
  0.062500   0.687500 0
  0.625000   0.687500 0
  0.125000   0.437500 0
  0.000000   0.937500 0
  0.062500   0.625000 0
  0.187500   0.125000 0
  0.125000   0.375000 0
  0.000000   0.875000 0
  0.406250   0.875000 0
  0.468750   0.625000 0
  0.593750   0.125000 0
  0.812500   0.937500 0
  0.312500   0.687500 0
  0.250000   0.937500 0
  0.875000   0.687500 0
  0.375000   0.437500 0
  0.750000   0.875000 0
  0.250000   0.625000 0
  0.187500   0.875000 0
  0.812500   0.625000 0
  0.312500   0.375000 0
  0.468750   0.781250 0
  0.593750   0.281250 0
  0.656250   0.031250 0
  0.625000   0.781250 0
  0.125000   0.531250 0
  0.062500   0.781250 0
  0.687500   0.531250 0
  0.187500   0.281250 0
  0.500000   0.812500 0
  0.687500   0.062500 0
  0.625000   0.312500 0
  0.656250   0.812500 0
  0.156250   0.562500 0
  0.718750   0.562500 0
  0.218750   0.312500 0
  0.093750   0.812500 0
  0.437500   0.968750 0
  0.625000   0.218750 0
  0.500000   0.781250 0
  0.687500   0.031250 0
  0.625000   0.281250 0
  0.656250   0.781250 0
  0.156250   0.531250 0
  0.718750   0.531250 0
  0.218750   0.281250 0
  0.093750   0.781250 0
  0.062500   0.562500 0
  0.125000   0.312500 0
  0.187500   0.062500 0
  0.000000   0.812500 0
  0.406250   0.812500 0
  0.968750   0.812500 0
  0.468750   0.562500 0
  0.593750   0.062500 0
  0.218750   0.687500 0
  0.156250   0.937500 0
  0.281250   0.437500 0
  0.062500   0.843750 0
  0.687500   0.593750 0
  0.187500   0.343750 0
  0.625000   0.843750 0
  0.125000   0.593750 0
  0.312500   0.843750 0
  0.437500   0.343750 0
  0.500000   0.093750 0
  0.375000   0.593750 0
  0.312500   0.906250 0
  0.937500   0.656250 0
  0.437500   0.406250 0
  0.875000   0.906250 0
  0.375000   0.656250 0
  0.062500   0.875000 0
  0.187500   0.375000 0
  0.250000   0.125000 0
  0.125000   0.625000 0
  0.093750   0.656250 0
  0.031250   0.906250 0
  0.218750   0.156250 0
  0.156250   0.406250 0
  0.593750   0.968750 0
  0.093750   0.718750 0
  0.031250   0.968750 0
  0.656250   0.718750 0
  0.156250   0.468750 0
  0.437500   0.906250 0
  0.625000   0.156250 0
  0.718750   0.812500 0
  0.218750   0.562500 0
  0.781250   0.562500 0
  0.281250   0.312500 0
  0.156250   0.812500 0
  0.062500   0.656250 0
  0.000000   0.906250 0
  0.187500   0.156250 0
  0.125000   0.406250 0
  0.562500   0.968750 0
  0.062500   0.718750 0
  0.000000   0.968750 0
  0.625000   0.718750 0
  0.125000   0.468750 0
  0.406250   0.968750 0
  0.968750   0.968750 0
  0.468750   0.718750 0
  0.531250   0.468750 0
  0.593750   0.218750 0
  0.406250   0.906250 0
  0.468750   0.656250 0
  0.593750   0.156250 0
  0.687500   0.781250 0
  0.187500   0.531250 0
  0.750000   0.531250 0
  0.250000   0.281250 0
  0.125000   0.781250 0
  0.781250   0.906250 0
  0.281250   0.656250 0
  0.218750   0.906250 0
  0.843750   0.656250 0
  0.343750   0.406250 0
  0.750000   0.906250 0
  0.250000   0.656250 0
  0.187500   0.906250 0
  0.812500   0.656250 0
  0.312500   0.406250 0
  0.875000   0.406250 0
  0.375000   0.156250 0
  0.812500   0.968750 0
  0.312500   0.718750 0
  0.250000   0.968750 0
  0.875000   0.718750 0
  0.375000   0.468750 0
  0.781250   0.937500 0
  0.281250   0.687500 0
  0.218750   0.937500 0
  0.843750   0.687500 0
  0.343750   0.437500 0
  0.718750   0.875000 0
  0.218750   0.625000 0
  0.156250   0.875000 0
  0.781250   0.625000 0
  0.281250   0.375000 0
  0.750000   0.937500 0
  0.250000   0.687500 0
  0.187500   0.937500 0
  0.875000   0.437500 0
  0.375000   0.187500 0
  0.812500   0.687500 0
  0.312500   0.437500 0
  0.687500   0.875000 0
  0.187500   0.625000 0
  0.750000   0.625000 0
  0.250000   0.375000 0
  0.125000   0.875000 0
  0.812500   1.000000 0
  0.312500   0.750000 0
  0.250000   1.000000 0
  0.875000   0.750000 0
  0.375000   0.500000 0
  0.562500   1.000000 0
  0.062500   0.750000 0
  0.000000   1.000000 0
  0.625000   0.750000 0
  0.125000   0.500000 0
  0.406250   1.000000 0
  0.968750   1.000000 0
  0.468750   0.750000 0
  0.656250   0.000000 0
  0.531250   0.500000 0
  0.593750   0.250000 0
  0.406250   0.937500 0
  0.468750   0.687500 0
  0.593750   0.187500 0
  0.687500   0.812500 0
  0.187500   0.562500 0
  0.750000   0.562500 0
  0.250000   0.312500 0
  0.125000   0.812500 0
  0.437500   0.843750 0
  0.625000   0.093750 0
  0.093750   0.593750 0
  0.156250   0.343750 0
  0.218750   0.093750 0
  0.031250   0.843750 0
  0.281250   0.937500 0
  0.843750   0.937500 0
  0.343750   0.687500 0
  0.906250   0.687500 0
  0.406250   0.437500 0
  0.156250   0.968750 0
  0.218750   0.718750 0
  0.281250   0.468750 0
  0.343750   0.218750 0
  0.156250   1.000000 0
  0.406250   0.000000 0
  0.281250   0.500000 0
  0.343750   0.250000 0
  0.218750   0.750000 0
  0.187500   0.968750 0
  0.250000   0.718750 0
  0.375000   0.218750 0
  0.312500   0.468750 0
  0.187500   1.000000 0
  0.312500   0.500000 0
  0.375000   0.250000 0
  0.437500   0.000000 0
  0.250000   0.750000 0
  0.031250   0.781250 0
  0.656250   0.531250 0
  0.156250   0.281250 0
  0.593750   0.781250 0
  0.093750   0.531250 0
  0.000000   0.781250 0
  0.625000   0.531250 0
  0.125000   0.281250 0
  0.562500   0.781250 0
  0.062500   0.531250 0
  0.781250   0.968750 0
  0.281250   0.718750 0
  0.218750   0.968750 0
  0.843750   0.718750 0
  0.343750   0.468750 0
  0.281250   0.968750 0
  0.843750   0.968750 0
  0.343750   0.718750 0
  0.906250   0.718750 0
  0.406250   0.468750 0
  0.281250   1.000000 0
  0.906250   0.750000 0
  0.406250   0.500000 0
  0.843750   1.000000 0
  0.343750   0.750000 0
  0.531250   0.000000 0
  0.718750   0.843750 0
  0.218750   0.593750 0
  0.156250   0.843750 0
  0.781250   0.593750 0
  0.281250   0.343750 0
  0.687500   0.843750 0
  0.187500   0.593750 0
  0.750000   0.593750 0
  0.250000   0.343750 0
  0.125000   0.843750 0
  0.218750   0.875000 0
  0.843750   0.625000 0
  0.343750   0.375000 0
  0.781250   0.875000 0
  0.281250   0.625000 0
  0.156250   0.906250 0
  0.781250   0.656250 0
  0.281250   0.406250 0
  0.718750   0.906250 0
  0.218750   0.656250 0
  0.031250   1.000000 0
  0.656250   0.750000 0
  0.156250   0.500000 0
  0.593750   1.000000 0
  0.093750   0.750000 0
  0.218750   1.000000 0
  0.343750   0.500000 0
  0.468750   0.000000 0
  0.406250   0.250000 0
  0.281250   0.750000 0
  0.593750   0.406250 0
  0.093750   0.156250 0
  0.531250   0.656250 0
  0.031250   0.406250 0
[...]
CELL_DATA 1024
SCALARS scalar_value float 1
LOOKUP_TABLE default
0.0182553
0.0220787
0.0153549
0.42735
0.698038
0.593272
0.341022
0.397789
0.529944
0.163209
0.136552
1.54605
1.94393
1.02146
1.18541
0.983471
1.4361
1.44279
0.836432
1.18564
0.989872
1.15163
0.601706
0.661482
0.0501347
0.0427347
0.064923
0.053664
0.395941
1.54192
24.1719
6.66465
2.16708
8.61519
0.675093
0.804095
1.05309
1.07458
1.41256
1.27054
0.184818
0.307918
0.933565
0.171893
1.1045
0.505616
0.973163
1.49184
0.526544
0.755888
0.682449
0.0405838
0.657962
0.724529
0.639936
0.842108
0.595718
0.295877
0.163757
0.88588
0.0834723
0.0331942
0.0636134
0.0872909
0.113233
0.027775
0.605227
0.246245
0.444487
0.526124
2.56604
10.3348
12.514
0.864923
0.447989
0.194616
0.463768
2.02108
0.487848
2.30901
0.0974612
2.29521
0.0381386
0.273244
0.0816312
0.148887
0.0153834
0.0890249
10.758
1.33778
4.17914
19.4234
0.822919
0.359028
0.0176721
0.0401202
1.27938
0.410345
0.0192274
0.159225
0.322198
20.2508
0.167015
0.485335
0.723786
0.240284
0.383829
1.49555
5.06747
3.51322
0.386983
0.799081
0.640199
6.24202
0.173123
0.948521
0.207519
2.53536
0.158664
58.9281
15.1556
0.227515
1.48755
4.24273
0.160399
1.61947
0.628017
0.0378992
0.51019
1.73449
0.382261
0.321717
0.0824689
118.836
7.80789
1.40753
3.91456
0.0660084
0.103717
0.162681
0.385907
8.60212
0.924489
0.872453
0.0189996
0.552847
0.0306213
6.24771
133.504
11.3147
0.342618
4.79669
0.307381
0.0205366
0.630358
0.360564
2.0058
1.30713
0.0716386
49.2583
2.99872
8.47449
0.0774465
0.140837
0.360288
2.68898
0.474598
2.86848
0.044849
0.13669
1.20915
0.101101
0.0252626
0.190654
0.063755
0.0824832
0.0591141
0.028527
3.37439
1.21936
6.88903
0.686375
58.5311
1.67756
7.14027
78.7433
1.64709
3.53129
29.3212
2.24606
3.87004
0.252969
1.02801
0.0858211
0.480146
0.740258
2.28495
0.115095
1.04237
0.0746482
0.242109
0.486371
1.73798
0.0437166
0.409446
1.24644
4.93692
0.305527
0.121789
1.15286
1.92747
0.262453
0.156955
0.603853
3.46153
0.530218
6.56712
0.182719
0.126131
0.835947
0.130741
0.149106
5.67051
0.929475
0.941248
0.0606249
4.03632
0.619366
0.198681
0.0263377
1.17212
8.21637
0.240611
0.0360656
2.4472
0.589823
0.147729
0.0677598
0.341611
15.4113
0.152671
0.332243
0.234936
0.384971
0.268317
2.04634
0.734677
0.151352
1.49023
0.442598
0.263158
0.0725926
101.846
90.3478
22.2793
23.4356
0.44905
0.335621
0.257052
0.188236
0.113924
0.151491
7.64718
6.17401
8.08861
0.301165
0.228132
0.328726
0.354571
0.237339
0.216911
0.254896
0.176662
0.287451
0.601844
0.691192
0.613346
0.996509
1.06442
0.922154
0.554905
0.613873
0.280365
0.918393
0.296102
1.00049
3.68828
1.97601
2.72137
1.2514
3.69562
1.91947
4.49954
1.68445
0.13076
3.09197
0.625943
4.56865
0.655995
1.37922
0.931708
1.19155
0.69131
1.03327
1.77462
0.56503
0.739818
0.952728
0.602532
0.269017
1.10866
2.67381
1.35492
0.204443
0.276875
0.281559
4.06846
5.03104
0.555584
4.93173
3.8149
3.78014
1.23028
1.26218
0.53549
0.383261
2.01258
3.57967
1.89188
4.07554
3.33262
0.974174
0.559691
1.69923
1.544
1.95737
0.490638
0.705749
0.13563
0.346103
0.70636
0.557972
0.463446
0.266035
0.637193
1.15771
0.707316
0.219035
0.345844
0.17175
0.644442
0.862726
1.1508
0.473989
1.22272
3.57717
1.26839
1.54642
1.59997
0.364753
1.11776
0.170485
3.36518
0.973746
0.596899
1.39848
0.141205
0.550466
0.11906
2.02664
0.821689
0.0849537
0.123319
0.349725
5.44203
3.88886
2.89587
0.717476
0.603302
1.11779
0.396877
0.369373
1.12773
0.309435
0.124473
0.308055
0.173662
0.618435
0.285796
0.564142
6.5241
1.65082
0.472842
0.256049
0.358066
1.47786
0.188211
0.160734
0.173483
1.65281
1.9138
2.06685
0.196397
0.357387
0.232343
3.75729
1.11544
2.54844
2.66164
0.516961
0.373124
0.880417
2.06212
1.83515
3.76466
1.52108
1.11395
3.80963
1.25095
2.69589
4.09215
0.767196
1.25892
0.302937
0.428925
1.08839
1.54633
3.81955
5.69854
3.05018
0.139116
2.41795
5.52739
0.289383
0.151035
2.76165
5.59547
1.13412
2.69933
0.784192
1.24902
3.33308
0.716142
0.925797
2.45129
0.817486
1.23283
0.285024
0.66963
1.03809
0.631422
0.135335
0.274048
0.528409
0.143076
0.369345
0.702794
0.603333
0.174398
1.01169
1.06781
0.760072
0.87191
0.609413
0.736372
0.690132
0.715343
0.162573
0.20573
0.194203
0.244577
0.722071
0.462586
0.328629
0.351002
0.326641
3.37692
1.862
1.12112
0.567577
0.756047
1.1541
0.91232
0.576095
1.20638
0.766646
0.735352
0.735999
0.487678
9.41393
9.36276
5.28378
8.34381
0.361649
0.701858
0.34085
0.3083
0.781727
0.277269
0.151219
0.658486
0.194291
0.202184
0.285784
0.163578
0.517202
0.246979
0.359667
0.296779
0.487665
0.451631
0.479631
0.183716
0.95206
1.4272
6.12949
12.2915
0.564207
0.596507
0.824012
1.01816
0.618476
0.392454
3.15714
0.542124
0.762663
0.589402
0.806375
0.475852
0.475411
0.18035
2.05769
3.44702
0.396855
0.29312
0.127875
0.209074
0.686342
0.532599
0.290987
0.360555
1.1469
1.4246
1.78803
0.978759
1.66572
1.20766
0.885114
1.90433
1.64627
1.04185
2.21301
0.966693
1.17541
0.673859
1.0002
0.750448
0.176876
0.337463
0.498571
0.275679
0.261362
0.159463
2.00636
0.38871
0.332801
1.37298
8.87319
10.6375
0.226393
1.17965
1.54434
0.623139
13.9896
0.471201
2.76309
1.202
0.775176
1.9575
1.71831
0.179173
0.61555
1.76498
1.21903
0.259014
0.585927
5.7166
1.46576
1.09322
0.270383
1.50123
0.952869
4.96787
1.51966
6.58355
16.2396
8.7263
9.46277
2.08613
0.592808
0.516194
0.206982
0.250737
0.578649
0.296841
0.528368
0.24011
1.64575
0.747747
3.04095
0.923548
1.98056
2.9422
14.7733
0.282595
5.65396
1.91839
0.722433
8.02004
3.24492
0.956608
0.216327
2.41726
0.418295
0.449123
0.45633
1.60645
0.65137
0.930308
4.5966
3.15735
10.708
0.33
12.6112
7.04107
0.5124
8.49029
0.554214
1.04006
0.555938
0.783966
11.4451
0.576021
2.62712
10.1021
0.768682
1.39857
0.736951
5.68939
0.516275
0.935949
1.33358
12.3985
0.659707
3.29107
19.542
0.59976
0.606441
1.39191
13.4114
1.27248
1.3589
0.554539
0.776611
0.556241
0.560978
0.543648
9.12065
4.14851
10.6303
4.76456
10.7207
9.61577
11.9766
5.72954
1.86724
0.984989
0.611269
0.379997
0.916592
0.698876
0.843124
0.631266
0.786548
0.363928
1.80304
2.05915
1.42958
0.275817
3.5448
1.62206
4.37447
1.80739
0.365999
6.36121
4.38571
1.84864
0.260887
5.24141
3.63064
2.94782
1.37111
0.237192
0.635449
0.738842
7.40178
0.439013
9.2765
0.558758
0.80646
8.87956
0.531141
0.913523
8.17899
0.14628
0.107064
0.107641
0.146888
0.982003
0.41743
0.847215
0.614348
1.02601
1.01485
0.254079
0.256847
0.238697
0.48507
0.471342
5.79412
11.7697
3.36724
0.303801
1.82992
9.78337
3.52553
0.733896
10.3276
6.78592
1.3106
4.46792
13.7509
0.701813
0.857911
1.1957
1.06628
0.950587
0.918602
2.32031
2.346
1.4377
6.8196
1.14636
6.85517
0.769357
1.05872
6.7364
1.98112
6.51995
0.156125
0.103234
0.112877
0.100567
0.523002
0.798247
1.12911
1.00686
0.670911
5.02537
0.144664
0.28269
0.253358
0.162186
60.7595
36.9812
0.123712
20.0057
42.1238
16.1525
0.296676
1.74348
0.963601
1.25007
1.38159
0.212463
0.150944
0.15369
0.272883
8.66497
3.06408
0.789459
200.26
1.46947
114.415
0.594361
0.439342
1.08722
1.35342
387.885
2.34817
106.728
2.26267
2.44286
0.428241
21.6342
2.3057
1.21915
104.753
0.852783
17.6151
8.05672
1.41541
144.085
1.43982
3.99073
3.87796
2.37054
3.8882
2.33937
1.73361
0.852612
0.854714
0.852715
3.29101
0.469277
0.51386
1.20499
2.31926
0.371441
277.804
0.765326
332.812
1.27211
9.22226
5.646
3.08434
0.62052
8.23201
2.4872
7.63548
35.5895
9.8917
6.25557
3.18862
0.486841
4.82175
2.17456
48.5359
8.37358
1.91171
0.793498
48.4265
6.12634
1.82202
0.729731
29.0967
0.789189
79.4793
3.02104
0.310083
1.1232
1.21622
37.1501
0.442339
156.701
2.84537
3.47435
1.44034
25.9328
0.876177
101.39
0.582734
160.612
1.53804
1.31819
18.065
0.361092
6.09138
51.9345
0.895692
1.89732
125.735
1.19392
20.0952
85.7723
0.316944
0.414061
0.556066
1.24668
119.07
5.49666
2.17973
0.914876
0.306872
10.7472
1.01819
1.74984
54.3491
1.35133
0.460161
1.45645
233.811
1.08416
0.228505
1.42248
0.229754
60.3889
1.03917
21.3485
1.07843
3.18297
0.743126
34.4773
160.445
0.495793
3.10998
9.55039
0.759092
0.282392
1.82975
26.6347
0.824397
2.17597
82.5828
2.07003
1.64988
62.5833
0.428683
1.55665
1.59341
0.755902
0.163078
0.271601
0.269539
0.201433
0.855477
17.4426
0.93208
11.6022
1.26858
17.7193
30.3832
1.00341
0.628361
0.485368
5.59314
1.46699
0.665885
0.319871
9.84132
4.78777
3.68576
1.2874
0.916138
0.15251
0.141199
1.45387
0.117397
0.204559
1.58645
0.128888
0.143432
1.48705
3.28578
122.813
3.40909
1.09837
5.50522
10.2768
1.20874
136.201
1.12483
7.08738
75.5093
1.73168
1.03448
2.25774
2.23933
1.77711
1.19884
33.7511
1.27403
1.43177
27.5099
2.56417
2.56102
2.9523
0.60947
0.820538
5.42666
0.700113
2.11384
0.350304
1.93083
0.174422
0.302963
1.10893
1.1334
0.132572
0.665827
0.120528
0.262273
0.235705
0.422541
0.251091
1.65797
1.18317
0.77161
8.15742
1.34089
2.1523
2.33126
1.41681
1.35192
0.503285
12.2067
67.3362
56.9217
0.933686
34.5349
0.706662
6.54797
53.0292
0.723984
