# vtk DataFile Version 2.0
Unstructured Grid by M++
ASCII
DATASET UNSTRUCTURED_GRID
POINTS 4225 float
  0.921875   0.593750 0
  0.921875   0.609375 0
  0.656250   0.609375 0
  0.671875   0.609375 0
  0.656250   0.546875 0
  0.671875   0.546875 0
  0.656250   0.562500 0
  0.656250   0.578125 0
  0.656250   0.593750 0
  0.671875   0.593750 0
  0.671875   0.562500 0
  0.671875   0.578125 0
  0.671875   0.625000 0
  0.671875   0.640625 0
  0.906250   0.578125 0
  0.890625   0.578125 0
  0.546875   0.515625 0
  1.000000   0.890625 0
  0.515625   0.640625 0
  0.515625   0.625000 0
  1.000000   0.875000 0
  0.515625   0.656250 0
  0.515625   0.687500 0
  0.515625   0.671875 0
  1.000000   0.921875 0
  0.546875   0.531250 0
  0.546875   0.546875 0
  0.546875   0.562500 0
  0.796875   0.531250 0
  0.953125   0.890625 0
  0.953125   0.875000 0
  0.953125   0.843750 0
  0.953125   0.828125 0
  0.953125   0.812500 0
  0.531250   0.562500 0
  0.531250   0.546875 0
  0.515625   0.562500 0
  0.515625   0.546875 0
  1.000000   0.812500 0
  0.781250   0.546875 0
  0.765625   0.546875 0
  0.859375   0.921875 0
  0.921875   0.671875 0
  0.609375   0.906250 0
  0.671875   0.656250 0
  0.609375   0.921875 0
  0.671875   0.671875 0
  0.671875   0.984375 0
  0.671875   1.000000 0
  0.906250   0.984375 0
  0.906250   1.000000 0
  0.921875   0.984375 0
  0.921875   1.000000 0
  0.859375   0.609375 0
  1.000000   0.781250 0
  0.515625   0.531250 0
  0.531250   0.531250 0
  0.531250   0.515625 0
  0.515625   0.515625 0
  1.000000   0.750000 0
  0.765625   0.531250 0
  0.781250   0.531250 0
  0.781250   0.515625 0
  0.765625   0.515625 0
  0.859375   0.875000 0
  0.921875   0.625000 0
  0.859375   0.890625 0
  0.921875   0.640625 0
  0.671875   0.968750 0
  0.671875   0.953125 0
  0.921875   0.968750 0
  0.921875   0.953125 0
  0.859375   0.593750 0
  0.859375   0.578125 0
  0.875000   0.578125 0
  0.828125   0.890625 0
  0.890625   0.640625 0
  0.593750   0.890625 0
  0.656250   0.640625 0
  0.593750   0.875000 0
  0.656250   0.625000 0
  0.578125   0.890625 0
  0.640625   0.640625 0
  0.578125   0.875000 0
  0.640625   0.625000 0
  0.968750   0.890625 0
  0.984375   0.890625 0
  0.968750   0.812500 0
  0.968750   0.828125 0
  0.984375   0.812500 0
  0.984375   0.828125 0
  1.000000   0.828125 0
  0.656250   0.953125 0
  0.640625   0.953125 0
  0.890625   0.968750 0
  0.906250   0.968750 0
  0.906250   0.953125 0
  0.890625   0.953125 0
  0.531250   0.703125 0
  0.531250   0.718750 0
  0.546875   0.718750 0
  0.546875   0.703125 0
  0.593750   0.578125 0
  0.562500   0.578125 0
  0.578125   0.578125 0
  0.843750   0.578125 0
  0.828125   0.578125 0
  0.828125   0.812500 0
  0.890625   0.562500 0
  0.828125   0.796875 0
  0.953125   0.906250 0
  0.953125   0.921875 0
  0.531250   0.859375 0
  0.593750   0.609375 0
  0.531250   0.843750 0
  0.593750   0.593750 0
  0.515625   0.843750 0
  0.578125   0.593750 0
  0.515625   0.859375 0
  0.578125   0.609375 0
  0.937500   0.859375 0
  1.000000   0.609375 0
  0.921875   0.859375 0
  0.984375   0.609375 0
  0.937500   0.796875 0
  0.921875   0.796875 0
  0.984375   0.546875 0
  0.562500   0.812500 0
  0.843750   0.796875 0
  0.843750   0.812500 0
  0.859375   0.796875 0
  0.859375   0.812500 0
  1.000000   0.906250 0
  0.984375   0.906250 0
  0.968750   0.906250 0
  0.968750   0.921875 0
  0.984375   0.921875 0
  0.593750   0.921875 0
  0.656250   0.671875 0
  0.593750   0.906250 0
  0.656250   0.656250 0
  0.578125   0.906250 0
  0.640625   0.656250 0
  0.578125   0.921875 0
  0.640625   0.671875 0
  1.000000   0.843750 0
  0.984375   0.843750 0
  0.968750   0.843750 0
  0.968750   0.859375 0
  0.968750   0.875000 0
  1.000000   0.859375 0
  0.984375   0.859375 0
  0.984375   0.875000 0
  0.656250   1.000000 0
  0.656250   0.984375 0
  0.656250   0.968750 0
  0.640625   0.968750 0
  0.640625   1.000000 0
  0.640625   0.984375 0
  0.843750   0.921875 0
  0.906250   0.671875 0
  0.843750   0.906250 0
  0.906250   0.656250 0
  0.828125   0.906250 0
  0.890625   0.656250 0
  0.828125   0.921875 0
  0.890625   0.671875 0
  0.781250   0.859375 0
  0.843750   0.609375 0
  0.781250   0.843750 0
  0.843750   0.593750 0
  0.765625   0.843750 0
  0.828125   0.593750 0
  0.765625   0.859375 0
  0.828125   0.609375 0
  0.968750   0.609375 0
  0.906250   0.859375 0
  0.953125   0.609375 0
  0.890625   0.859375 0
  0.937500   0.609375 0
  0.875000   0.859375 0
  0.562500   0.593750 0
  0.546875   0.593750 0
  0.531250   0.593750 0
  0.531250   0.609375 0
  0.562500   0.609375 0
  0.546875   0.609375 0
  0.609375   0.625000 0
  0.546875   0.875000 0
  0.609375   0.640625 0
  0.546875   0.890625 0
  0.625000   0.640625 0
  0.562500   0.890625 0
  0.625000   0.625000 0
  0.562500   0.875000 0
  0.921875   0.843750 0
  0.984375   0.593750 0
  0.937500   0.843750 0
  1.000000   0.593750 0
  0.921875   0.812500 0
  0.921875   0.828125 0
  0.984375   0.578125 0
  0.937500   0.828125 0
  1.000000   0.578125 0
  0.937500   0.812500 0
  1.000000   0.562500 0
  0.578125   0.828125 0
  0.921875   0.781250 0
  0.937500   0.781250 0
  1.000000   0.531250 0
  0.921875   0.765625 0
  0.984375   0.515625 0
  0.937500   0.765625 0
  0.625000   0.656250 0
  0.562500   0.906250 0
  0.609375   0.656250 0
  0.546875   0.906250 0
  0.625000   0.671875 0
  0.562500   0.921875 0
  0.609375   0.671875 0
  0.546875   0.921875 0
  0.859375   0.781250 0
  0.859375   0.765625 0
  0.828125   0.671875 0
  0.765625   0.921875 0
  0.828125   0.734375 0
  0.765625   0.984375 0
  0.875000   0.843750 0
  0.937500   0.593750 0
  0.890625   0.843750 0
  0.953125   0.593750 0
  0.906250   0.843750 0
  0.968750   0.593750 0
  0.906250   0.828125 0
  0.968750   0.578125 0
  0.937500   0.578125 0
  0.953125   0.578125 0
  0.906250   0.765625 0
  0.875000   0.765625 0
  0.953125   0.515625 0
  0.531250   0.781250 0
  0.671875   0.890625 0
  0.531250   0.921875 0
  0.953125   0.656250 0
  0.828125   0.781250 0
  0.843750   0.781250 0
  0.703125   0.984375 0
  0.687500   0.984375 0
  0.843750   0.875000 0
  0.906250   0.625000 0
  0.671875   0.781250 0
  0.734375   0.531250 0
  0.906250   0.609375 0
  0.671875   0.765625 0
  0.734375   0.515625 0
  0.906250   0.593750 0
  0.890625   0.593750 0
  0.875000   0.593750 0
  0.828125   0.875000 0
  0.890625   0.625000 0
  0.656250   0.781250 0
  0.718750   0.531250 0
  0.890625   0.609375 0
  0.656250   0.765625 0
  0.718750   0.515625 0
  0.875000   0.609375 0
  0.640625   0.765625 0
  0.703125   0.515625 0
  0.812500   0.921875 0
  0.875000   0.671875 0
  0.812500   0.875000 0
  0.875000   0.625000 0
  0.640625   0.781250 0
  0.703125   0.531250 0
  0.812500   0.515625 0
  0.750000   0.828125 0
  0.812500   0.578125 0
  0.687500   1.000000 0
  0.937500   0.656250 0
  0.875000   0.906250 0
  0.531250   0.656250 0
  0.890625   0.906250 0
  0.906250   0.906250 0
  0.562500   0.656250 0
  0.906250   0.890625 0
  0.562500   0.640625 0
  0.968750   0.625000 0
  0.906250   0.875000 0
  0.562500   0.625000 0
  0.937500   0.640625 0
  0.875000   0.890625 0
  0.890625   0.890625 0
  0.546875   0.640625 0
  0.953125   0.625000 0
  0.890625   0.875000 0
  0.546875   0.625000 0
  0.546875   0.687500 0
  0.890625   0.937500 0
  0.937500   0.625000 0
  0.875000   0.875000 0
  0.531250   0.625000 0
  0.531250   0.640625 0
  0.546875   0.656250 0
  0.937500   0.968750 0
  0.687500   0.968750 0
  0.953125   0.968750 0
  0.703125   0.968750 0
  0.968750   0.968750 0
  0.718750   0.968750 0
  0.718750   0.906250 0
  0.968750   0.953125 0
  0.718750   0.953125 0
  0.968750   0.937500 0
  0.859375   0.906250 0
  0.921875   0.656250 0
  0.718750   0.937500 0
  0.828125   0.531250 0
  0.937500   0.953125 0
  0.687500   0.953125 0
  0.953125   0.953125 0
  0.703125   0.953125 0
  0.703125   0.890625 0
  0.843750   0.515625 0
  0.953125   0.937500 0
  0.953125   1.000000 0
  0.703125   0.937500 0
  0.937500   0.937500 0
  0.687500   0.937500 0
  0.703125   0.906250 0
  0.718750   0.890625 0
  0.687500   0.890625 0
  0.687500   0.765625 0
  0.750000   0.515625 0
  0.687500   0.781250 0
  0.750000   0.531250 0
  0.859375   0.937500 0
  0.921875   0.687500 0
  0.687500   0.796875 0
  0.750000   0.546875 0
  0.578125   0.750000 0
  0.515625   1.000000 0
  0.843750   0.765625 0
  0.578125   0.734375 0
  0.515625   0.984375 0
  0.562500   0.734375 0
  0.828125   0.750000 0
  0.765625   1.000000 0
  0.562500   0.750000 0
  0.562500   0.718750 0
  0.578125   0.515625 0
  0.921875   0.703125 0
  0.921875   0.718750 0
  0.593750   0.515625 0
  0.687500   0.875000 0
  0.750000   0.625000 0
  0.578125   0.531250 0
  0.921875   0.750000 0
  0.703125   0.875000 0
  0.765625   0.625000 0
  0.593750   0.531250 0
  0.875000   0.968750 0
  0.937500   0.718750 0
  0.703125   0.828125 0
  0.765625   0.578125 0
  0.937500   0.734375 0
  0.703125   0.812500 0
  0.765625   0.562500 0
  0.890625   0.687500 0
  0.828125   0.937500 0
  0.656250   0.796875 0
  0.718750   0.546875 0
  0.890625   0.718750 0
  0.828125   0.968750 0
  0.906250   0.796875 0
  0.718750   0.828125 0
  0.781250   0.578125 0
  0.890625   0.703125 0
  0.828125   0.953125 0
  0.656250   0.859375 0
  0.906250   0.781250 0
  0.968750   0.531250 0
  0.546875   0.796875 0
  0.671875   0.796875 0
  0.734375   0.546875 0
  0.843750   0.953125 0
  0.906250   0.703125 0
  0.671875   0.875000 0
  0.718750   0.812500 0
  0.781250   0.562500 0
  0.875000   0.812500 0
  0.531250   0.890625 0
  0.593750   0.640625 0
  0.937500   0.890625 0
  0.875000   0.781250 0
  0.609375   0.703125 0
  0.546875   0.953125 0
  0.890625   0.796875 0
  0.625000   0.718750 0
  0.562500   0.968750 0
  0.906250   0.812500 0
  0.734375   0.859375 0
  0.796875   0.609375 0
  0.718750   0.875000 0
  0.781250   0.625000 0
  0.750000   0.859375 0
  0.812500   0.609375 0
  0.812500   0.546875 0
  0.750000   0.812500 0
  0.734375   0.843750 0
  0.796875   0.593750 0
  0.750000   0.843750 0
  0.812500   0.593750 0
[...]
CELL_DATA 4096
SCALARS scalar_value float 1
LOOKUP_TABLE default
10.2426
9.64521
17.5238
18.4713
7.34003
11.7438
19.4719
22.3792
15.2609
18.3645
7.81838
3.98335
44.2893
13.9401
32.1332
106.133
0.393811
0.557065
0.23037
0.0634906
4.96324
2.64623
2.39855
7.56699
0.686584
1.5998
2.67611
0.494694
74.7307
29.6313
19.5997
49.2739
0.799686
0.844022
0.448265
1.19857
4.77781
7.96155
2.33721
1.41041
2.98993
2.92098
9.88542
3.3997
0.0385358
0.104286
0.112595
0.0774426
78.1383
94.2524
31.9553
39.8213
0.168546
0.156039
0.960379
1.5576
1.15112
0.415121
1.34597
2.94417
0.54946
1.61306
1.55867
0.87142
69.8109
264.546
125.573
26.8472
0.711551
0.910547
0.576317
0.434014
0.5424
0.195551
0.695327
1.63736
0.511681
0.932254
0.27617
0.231945
27.5797
6.32584
2.37208
5.67811
3.96231
3.67582
2.74271
1.74479
0.0938602
0.0965986
0.385341
0.157399
17.3627
2.68982
2.62916
8.19431
5.54259
8.54667
24.8424
17.5443
0.885587
1.16074
2.0631
1.07916
0.320136
0.196281
0.116697
0.253563
4.86455
5.67214
29.5371
36.399
0.435383
1.29484
0.617911
0.500298
4.57794
1.77733
3.78798
8.03306
0.398319
0.174625
0.547166
0.584621
236.109
325.672
176.729
321.395
21.7959
12.4089
32.3276
48.6015
52.3794
13.1203
2.11293
6.07875
0.304562
0.589165
0.535745
0.164521
6.17655
14.0955
9.88205
2.12946
179.933
177.57
306.089
253.246
19.3943
38.6595
103.565
27.5065
1.26755
6.1186
4.38851
1.65876
0.0603352
0.14864
0.165612
0.140486
10.3193
10.0017
21.3815
22.1568
0.0619378
0.112006
0.0584735
0.0763761
21.7093
34.3586
63.6308
48.642
73.6611
69.1883
27.0937
18.9679
17.0668
8.4088
3.05915
9.51134
0.323588
0.198852
0.107896
0.182864
96.5814
247.146
86.1494
93.8506
297.085
137.353
434.632
617.676
16.1471
11.9803
17.3704
27.7348
0.175846
0.285968
0.288755
0.439005
64.7278
0.228838
139.871
188.314
34.0439
2.74248
24.1019
15.4949
1.51997
17.1532
0.155712
650.865
0.00902421
893.346
0.0844267
102.183
0.00173063
230.46
0.0013349
122.24
0.00517507
110.733
0.00408384
11.1221
6.13743
9.07909
0.0657394
0.0222569
9.94066
4.68223
0.0099024
0.029773
7.23351
7.76666
82.5637
5.37282
12.1577
3.76538
327.191
0.348015
197.547
0.0421942
126.91
5.30331
589.061
2.96149
1447.92
0.632467
1123.06
0.298103
82046.4
0.248958
0.252356
179622
0.122432
171423
0.179851
0.437267
29486.2
0.515168
153.742
75.2869
155.763
20.9519
408.226
11.613
16.4807
5.2352
4.46635
1.9129
2.06961
334.158
71.0603
11.5409
56.3738
0.768232
14.6105
3.95866
20.7557
0.153428
106.186
0.138798
58.3847
2.27143
14.3121
0.0458373
17.9664
0.0225935
91.2749
163.062
242.814
11.1715
106.257
0.967459
17.758
1.96688
23.4446
1.20348
0.0777424
5651.46
47.5504
0.433422
18.5566
62.7995
0.766148
0.983568
11.6371
21385.4
5.77146
0.111723
20.8935
35.7237
12.1163
15.0743
33.8452
3.69931
15.6707
251.529
0.000807364
106.205
0.000635925
59.924
0.00036557
458.966
0.0320604
222.235
54.6191
864.787
0.0153939
1959.77
33.0368
14.2167
10.9051
1.09236
18.1072
0.864481
1525.45
37.7266
1.0619
1.8471
60.8312
38.8157
387.349
31.5101
0.782811
15.9013
0.613227
16.0535
1.83502
0.20309
10.6662
4.80141
3.90739
17450.6
0.0816926
4937.37
0.101614
3288.43
0.270004
378276
0.0499618
231715
0.0600487
12521
0.0265584
180878
0.0807768
43.0197
31.6274
7.73465
16.2005
1.35146
147.013
2.21837
174.115
5.41922
99.4913
6.50084
75.7071
14.9721
4.2472
12.2616
37.5606
3.21246
1.20997
216
1.05749
120.915
0.0959818
11.0349
67.8126
52.8939
2.97774
12.4761
0.59093
1.76277
0.0122305
208.528
1.50182
10.3619
0.326781
8.40952
0.145541
88.5565
0.139147
56.8739
0.389466
2.46958
0.0164352
120.371
0.267945
98.0053
0.306428
79.5845
0.113559
105.397
0.166605
74.9059
0.0626811
254.144
0.340314
249.604
0.423766
144.982
72.0111
0.614689
14462.3
111908
524.302
0.0658532
59.6248
413.649
0.0139306
107.732
353.099
414.507
0.0219194
369.899
12097.3
1357.09
50.0165
228.42
3.01623
26.836
5257.05
2875.07
777.594
100.027
11.0438
33056.8
55444.7
1991.14
1132.84
1044.39
0.0991397
696.834
0.102164
230.298
0.0170441
282.885
0.037052
600.835
2397.14
0.594681
0.0076173
134383
0.097192
59.1073
98902.1
0.185692
81.6199
41.743
282.102
40.9519
24768.9
7544.37
0.0491079
175.241
373.179
582.085
36.8327
60.325
7.38497
0.56724
248.146
11.9148
35.2118
64.0463
10.8056
19.9637
2.78391
194.031
0.126681
33.7963
0.7413
7.88886
533.358
61525.8
677.702
0.534338
30175
0.901947
0.00475913
0.000744282
86.5406
21.4749
12.9638
6.96985
32059.3
106.736
3.39438
27.0164
220.498
44.2863
26152.7
4.25493
7934.76
0.369961
16.675
38.0442
9.52206
0.00297357
16.5996
0.161412
44.1657
839.97
40.9074
1.05086
3.218
5.90502
0.000385802
182.446
0.0888679
441.434
555.928
12.5352
5351.75
7.66082
13.8291
0.36449
17.4747
0.0218525
821.492
2917.43
8.64555
2.86493
1.13699
18.3408
87.8982
7.88957
0.0222937
141.008
1193.84
3.60572
26.8102
0.282459
6.95628
8.96443
9.83053
0.0036821
0.000703219
9.22656
5303.47
157.624
21.7259
0.558915
40.5555
0.000241703
22.4081
8.63407
0.202556
0.00321987
5.66187
2597.43
0.000688296
1368.42
3093.99
18.1717
50.7362
15.4827
38.1009
41.3573
19.3647
1.18269
55.6302
0.00333683
1.50588
4573.98
190863
0.0517508
163512
0.276299
8.67719
691.42
8.35212
1.49431
38.8357
49.675
42.4979
5.84579
2.1281
67.6772
6155.19
1.88021
1514.62
0.00130802
2.54396
9794.1
4.35192
109.936
0.0134045
9.16788
31.2697
2241.23
0.00129777
0.00499006
1.02509
7.02752
9.44083
4.23652
4761.3
0.00126313
51.7345
2240.12
263.446
55.5492
3.2019
33.9455
5.82158
4187.25
1140.7
5.55871
67.8907
0.121593
70.474
5.7611
8.50954
18.5797
25.9929
7.55709
190.991
16.5068
0.658185
94.4644
989.947
24.5108
0.773392
74.8368
2.52478
1.36853
2.11369
0.0618777
1.11375
0.0326247
1.60576
0.0112695
1.83358
0.0140672
22.6074
0.000341884
433974
0.0484342
3.55906
0.0021508
3.62269
0.00403747
26.6116
13.0275
3.23622
5.25119
26.8477
0.00148068
336.445
54.7539
0.00725263
27.3035
0.00282104
11.5051
0.00589202
20.4207
0.0154038
86.7123
3.74815
0.644814
1.67419
0.157925
0.786727
16.4304
11.2632
0.017999
2.33453
0.0115469
47.0136
4879.64
25.4829
1.63572
4.10856
1.73897
0.0660936
2.73899
38.9732
5.43458
4.94674
10.6717
29.7426
19.138
71.0413
6.4897
56.5881
3.88989
15.7068
130.787
332.797
47.5599
261.116
0.0195771
110.165
554.833
0.00474894
553.16
112.358
0.350545
113.305
33.2127
1575.67
0.0799621
106.044
50.3129
1.98611
8.41599
163.361
95.7275
14.2839
9.43666
4.32282
58.2521
69.5863
2.54907
91.4462
105.721
128.036
383.48
3.52461
122.448
17.0004
4.52647
32.1883
133.811
79.7528
31.1321
3.41727
81.0791
5.02197
334.835
0.00340275
353.46
0.0112472
139.492
0.0247456
188.214
0.0104623
49916.5
0.205003
137500
0.117994
213330
0.100394
95771.4
0.213097
9.99296
416294
0.0269894
353384
0.0266787
39.597
120705
0.0320017
105634
0.020286
94.9356
77.5174
60.6013
41.1828
0.161844
0.0693401
0.119037
0.0756166
0.0160898
0.0822943
0.496568
0.0820468
570.306
0.00136258
634.205
0.00165264
165.61
0.000472867
203.684
0.000240568
5.53949
1247.17
3.48924
446.8
0.245125
740.619
0.594398
1511.48
42.04
109.716
195.952
73.4726
537.143
1352.24
802.807
268.668
841.776
0.97943
424.355
0.931222
91.6243
1.5885
167.751
1.65001
411.517
787.58
592.572
420.851
0.0980877
0.0811689
0.207888
0.0897221
30.083
0.474408
68.6778
0.0890853
174.571
0.113708
106.992
1.99855
3383.26
2546.07
1079.13
4978.05
2.36366
1.94244
66.7181
77.5427
0.113033
2.63419
0.301058
0.123508
0.152484
0.0621984
0.0832872
0.197748
0.0764674
1.44793
214.981
4.80263
56.9971
3.43546
105.617
1.01715
848.214
0.344112
347.746
0.412331
360.844
0.431162
156.107
0.250603
158.26
19.2439
2.16462
3.3224
22.1841
0.841055
6.59631
3.64173
1.33265
0.035059
0.165148
0.41213
0.0805528
95.8651
0.0167166
77.4284
0.00141202
151.109
0.000732964
131.309
0.00744372
14.8935
1.18342
19.1604
0.527226
21.5724
0.911019
24.595
2.17585
54.4261
9.72381e-05
166.412
0.000121713
84.5968
0.00013259
49.9003
0.00022164
263.04
161.452
376.391
1140.15
0.230469
8.26976
51.733
1.00733
0.179655
0.0868329
0.0962864
0.17986
10.2663
16.4756
16.9654
8.30605
12.7824
6.30513
15.7692
14.2314
8.81758
2.03929
26.0925
1.35793
23.4965
1.76284
11.6166
1.54382
305.969
219.614
651.518
552.891
433.257
1240.69
634.335
251.295
11249.6
2802.97
18101
102880
809.118
445.2
598.054
764.911
1.43838
3514.88
0.615366
743.223
0.359445
353.943
0.822579
1336.92
0.49303
7.05591
402.181
0.291714
132.344
0.469701
71.4606
0.665017
248.236
0.704799
0.266315
0.357056
0.555993
212.216
0.00809785
148.782
0.00486539
114.515
0.00106425
276.865
0.00476196
21625.7
3077.58
3032.35
24854.4
15.0326
4.53686
4.13827
9.55593
0.195388
0.384861
0.406234
0.0947429
3.74309
10.8142
3.07052
23.1932
7.05556
32.265
17.0312
8.19569
0.0790285
0.0487821
0.0566497
0.0725342
0.189168
0.226678
0.784972
0.634569
0.143609
0.170171
0.0597002
0.0994362
0.038398
0.0396989
0.108234
0.0480901
0.380342
0.114928
0.152306
0.315013
123.652
384.44
397.321
0.0497023
0.0172593
0.0136373
0.0680353
0.00404351
0.00940198
0.0262313
0.0101011
0.00126908
0.00357978
0.00227483
0.000828788
0.0101796
0.00499733
0.00427191
0.00786925
3.36574e+06
1.29622e+07
1.08709e+07
5.47599e+06
130366
97286.8
135759
223837
15.5829
36.0184
270.078
79.8196
17.8362
161.492
82.3799
13.1723
2435.22
1459.04
2236.94
1309.66
537118
962961
150005
168354
112159
34586.2
10865.8
72847.1
2112.59
1901.32
1652.45
1497.22
158321
598455
314212
130992
2071.96
2619.8
1088.59
447.421
916.815
1629.26
1577.81
1082.02
17103.5
8517.83
66030.3
42506.4
27.4858
117.954
604.67
138.637
1377.65
1677.09
421.835
444.722
27937.1
4419.25
5158.6
26017.7
0.0238379
0.15526
0.247414
0.0267509
0.0854921
0.0447874
0.0107767
0.0514219
0.257157
0.114183
0.140368
0.405671
0.314421
0.490902
0.858534
5825.87
849.433
4856.92
25377.7
1064.23
170.691
430.476
1020.63
215.724
342.468
4175.78
1188.15
3.10434
25.4334
20.2362
2.18556
112.102
280.243
278.984
230.518
694.863
95.8025
12.5502
130.392
528.216
509.794
1179.88
1656.77
11.1104
2.56518
7.63345
24.9637
1.07159
1.10238
3.67905
1.95403
0.0157146
0.0240375
0.0804728
0.0301687
0.130256
0.329061
0.284921
0.088026
4.96457
0.322769
0.848176
5.20018
0.040232
0.0178143
0.0161824
0.0256695
1.71602
0.206143
0.0256115
0.107327
0.00164152
0.00245351
0.000443163
0.000337206
11.9131
3.34621
11.7138
45.4522
285843
1.7915e+06
463225
222620
318239
219622
55127.1
106099
0.928978
0.0220211
0.0205879
0.290059
694852
227742
319998
1.79632e+06
252.768
174.069
113.879
178.412
0.000159963
0.00112492
0.000822481
0.000336659
0.00053149
0.000371198
0.000309869
0.000348351
0.00126855
0.000580402
0.00112409
0.00411906
0.000336877
0.00050111
0.000225003
0.000292658
0.000178647
0.000456783
0.000599543
0.000534503
0.00246414
0.00231644
0.000892787
0.00108355
0.000260109
9.79694
0.0872753
0.819635
4.44174e-05
0.0984842
0.40199
0.13634
0.0395754
0.127817
6.47969
260.808
87.1486
12531.5
1251.66
10725.6
2504.38
0.0149541
2.27796
0.0202168
0.696967
0.0346599
0.241293
7.19081
81.8021
0.100008
58.9536
1228.86
3094.47
24886.4
1046.22
2630.65
26340.1
0.957187
280.412
114.995
0.249591
3287.81
24.5063
0.350913
18223
1.26286
0.342361
19.3412
388.776
0.280047
1744.78
0.160569
6617.98
678.277
0.0569943
2058.61
6337.16
176.795
0.0988275
924.173
5693.95
0.376524
40.1844
0.429939
131.001
1.81229
94.1985
566.204
0.00226134
0.165886
33.9426
31.6401
0.00165159
0.141966
8894.04
0.134551
13.4552
0.113881
7.41031
10.5116
0.00448028
0.216906
9.88096
33.6423
0.0139018
2.62169
0.069319
7.01956
0.0290835
12.6564
0.0107447
17.4939
0.0154477
17.1378
0.0339853
27.7558
120.579
66.0861
171.907
0.119335
0.169418
0.0925969
0.205294
0.496724
0.0935842
0.157688
95.3545
9.935
0.0372529
5.79415
0.018249
11.3046
0.0568225
16.1953
0.0857805
0.319606
9.72782
1.68253
44.978
1.91169
78.8714
0.299822
5.79102
1.51164e-05
1.35497
0.283951
2.1768e+06
1.42311
450951
17.0685
11883.8
2.72842
13135.4
0.590218
3.38191e+06
4.47035
78123.6
17.0017
0.0136469
10.1473
0.00539588
8.60313
0.00398815
50.3924
0.11527
43.5727
0.404811
10.5127
0.0128279
36.0338
0.361531
57.5586
1620.04
10.0755
92.561
0.000535097
586.512
0.459873
17.5358
1167.23
0.121948
5043.98
2.25021
94.96
87351.8
2.34428
104468
12.2582
147.962
5.08351
0.00143564
6.41164
0.00271056
11.3054
0.00155592
91.7946
0.175328
74.0314
0.0872103
3.65981
0.00134443
58.7675
0.0285413
50.8786
0.0420036
0.000269622
1483.62
0.000859527
1560.35
0.000213395
184.391
14.4217
0.00726244
0.761406
0.000629627
29.3517
0.0121383
3.96107
0.00107147
692.064
1.49931
0.000963265
14.8231
0.00691094
0.609175
0.000278316
386410
447969
137079
62757.7
0.678122
1062.53
0.00278009
164.15
17.9119
30.6862
19.7916
13.248
0.00227059
0.0463637
9.84185
429.837
1480.08
13.4494
76.9698
0.0033743
1494.12
1.11146
82.3802
0.000576668
1846.83
9.55367e-05
194.978
0.444387
47.3152
0.00130272
131.479
0.000526374
15.368
17.7753
0.0231914
0.00981113
10.9731
200.336
7.41584
46.7414
0.0237687
27.6267
0.0114659
26435.2
5004.64
0.298463
3.37042e-05
25.6994
725.567
0.13893
0.0170248
0.0351398
13.4688
9.64295
502.625
0.595837
0.0417214
0.00132679
16.0964
0.0497643
0.000449743
0.000649838
7.92453
0.08626
0.00110428
0.605827
0.00764113
0.0182577
0.0134925
0.0097637
0.100553
0.0362165
0.00274424
0.00147834
0.0296009
8.60065e-05
25.5064
0.00768536
44.8999
177.328
4.70885
0.0788313
0.0028687
0.0119089
5.29174
279.851
3.89399e-05
8.25804
0.000132028
9.2875
0.000371129
24.0701
4.3219e-05
8.49051
170.727
30.1504
17986.3
26861.8
0.0631901
0.000916627
0.227708
0.00361014
0.103005
0.00304665
0.579891
97.1799
1.1369
25202.5
0.0880367
0.00632623
0.184626
0.0159814
0.0933966
0.00172105
1704.73
65327.4
209.524
21287
0.000446512
0.0925522
0.00866145
0.033204
0.039029
0.0148393
1.73946e-05
0.667469
0.0525829
0.0153515
0.000298894
16.7216
4.62782e-05
0.546257
0.000102326
151.944
287.54
244488
6.40549e-05
0.0739444
33.2043
0.0230869
8.70606e-05
4.8674
0.00754656
8.62083
2.54942e-05
6.26629
160.388
3.24649
4.43933e-05
51.8416
0.00189069
13.3285
0.000136842
42.268
88.3146
7.22665
121.161
56.095
0.000296148
0.122493
7.49954
104.53
1.56304
0.0810507
0.979243
40.271
0.000544201
0.14863
0.223608
0.627004
0.00190986
819.677
40945.6
0.000640142
0.0552038
61.9321
1033.85
113791
223.039
1881.66
0.000335938
0.0810291
0.0043337
0.858982
0.21383
0.0109213
6.83594
0.0301245
11.0812
457119
0.345348
0.00903502
4227.87
16284.4
0.000467089
0.0707685
25.9788
55961.3
0.0833694
198.431
1.28935
6497.47
7992.58
2.34723
8.20494e-05
0.0939289
0.000785142
0.330892
0.00427253
283.969
7.86772
895.857
6353.34
0.0004503
0.0728653
9851.95
62389.2
9.77666e-05
0.0470079
0.137916
0.135435
0.323985
0.0707229
0.00340008
0.00363904
0.0199576
1.68903
298.877
436.171
0.0388914
0.0217046
0.0308054
0.0560662
0.0179578
0.0469079
72.1436
5464.06
0.00028523
0.159768
114.927
0.272212
0.697546
14.2306
373.264
1.55078
111.822
0.0125019
33.4402
0.114355
0.102445
0.0771204
0.723919
3.09917
0.0284432
0.00774209
19804.1
0.802798
21781.3
9716.68
0.000473011
0.0730599
1.2851
576.979
48.0627
0.725619
4.4066
52560.9
4.72533
140.723
312.334
0.147493
8.01096
32153.4
1.82494
534.486
0.000524512
0.179559
9.94652
217.025
76140.3
2493.89
56.2135
0.00963663
11.4746
303.561
20.8096
86.6917
217.512
13.6121
392.493
0.330515
0.000597308
0.183648
0.000844925
0.0250895
16787.7
12.1549
0.00199873
0.0082993
4757.84
0.00699875
804.916
1.37652
0.00115622
0.0178651
2315.67
2979.69
17538.4
3.89654
0.00117227
980.163
3.80772
0.00182646
0.375482
11274.4
2.52613
10546.2
1.45882
758.817
0.112405
2748.43
0.000215151
0.69358
0.000104851
0.165577
26.4311
57457.8
6632.76
3507.13
4327.84
8561.39
0.000413084
0.264519
16771.3
6911.81
0.00263018
17.8012
0.00016983
0.0143771
0.050253
6300.25
11830.5
15594.9
10753.2
0.794526
234.781
0.936793
99.8076
1.17253
53.6446
2.77166
130.264
578.322
336.079
261.705
1156.35
15.6716
58.4584
0.101157
6.41116
1848.24
1973.76
1370.42
1416
374.97
0.207387
167.112
0.226807
81.9699
1.08206
251.425
0.427365
0.486283
0.0912243
0.206088
0.823326
2119.94
573.685
216.887
368.727
3717.09
2159.54
1091.25
5835.99
0.0169213
0.0167309
0.00308105
0.00311266
0.00742778
3.27968
0.00428497
12.0068
0.0148254
3.12062
0.00335452
1.06497
0.000126066
0.248049
0.000287495
0.535753
0.000455946
0.0861001
0.000123595
0.0616686
0.0587518
0.00344159
0.00174785
0.0216845
219.872
852.498
801.391
968.394
5.64079
1.96454
125391
0.438648
77295.7
1.04688
35241.8
1.22111
70764.5
1.5295
4.82569e+06
0.986541
3.45564e+06
0.382253
3.32964e+06
0.485444
1.11882e+07
29.7883
0.218985
23.3425
1.12333
13.8396
0.352448
8.0429
0.0953477
0.0279273
0.0171905
0.00335432
0.00585648
0.247655
119.568
0.0328112
0.0183769
0.183016
1066.95
7.96682
872.356
8.73799
451.911
6.59498
1377.3
11.444
53.5225
1444.71
8.61903
1257.38
42.0572
338.26
83.475
568.526
582708
80895.2
58999.1
30810.7
24270.1
0.542823
0.297231
2.18183
1.2347
0.180665
0.167778
0.0372052
0.0494632
22.9238
14.206
4.38953
55.0027
2.34558
59.3482
5.8824
12.4147
0.000537319
0.0472741
0.00223191
0.0307404
0.00256872
0.100057
0.11
8.18373
1.21506
15.4537
0.806008
50.9344
0.106449
41.5591
0.139173
348.974
0.155026
555.075
0.187457
380.826
27414.8
0.108083
193.633
7.8792
19.8817
49.7554
5.29739
34.7064
40.6181
65.6846
8.06105
26.2762
1.28411
28.2808
5.18553
482.075
770.105
1468.4
534.163
1.52323
2.20321
3.2425
1.53724
18.7119
6.58263
14.9242
40.2844
13.0687
0.508244
13.2735
0.787311
74.517
2.59772
72.726
1.67175
2.82681e+06
825373
544021
665546
399330
411208
3.73395e+06
3.73303e+06
5999.37
35818.7
80569.5
20409.6
173482
1.41588e+06
2.50879e+06
1.04569e+06
17.8218
18.4633
55.0993
71.9399
0.942124
3.15649
3.24283
2.15802
17.4626
39.7896
59.8963
25.8159
629.211
174.89
206.727
435.691
5.11729
1.61992
0.292551
0.797011
0.0190833
0.0279612
0.0349787
0.0208212
0.000417718
0.000216812
0.000415138
0.00140224
0.238218
0.000105292
0.0847682
0.000238096
0.08031
0.000292275
0.101516
1.88122
0.00519142
0.789348
0.00251118
0.340996
0.00181455
1.81314
0.00147282
0.0434226
0.0956713
0.0483025
0.0431193
0.0335773
0.0165642
0.105747
0.13493
4.84436
1.96544
427.498
531.294
731.236
672.395
722.843
276.36
353.518
728.094
263.276
494.849
595.124
195.305
2715.32
1182.86
1656.34
2360.82
245.673
914.588
1242.81
764.762
75.3649
441.781
107.887
35.041
0.036446
0.123496
0.0545162
0.0463623
6722.43
2858.69
211.494
727.884
5113.81
4408.21
13978.3
31931.8
0.000473403
0.00223367
0.00263803
0.000845105
0.00410508
0.00254286
0.00229976
0.206604
0.0403376
0.0677854
0.496832
0.0163851
0.0129699
0.0633342
0.113473
0.103021
0.0988521
0.37446
0.69099
123.747
16.8586
5.92014
36.0697
0.0538463
0.0573442
0.0372266
0.0434964
0.501144
3.17923
0.376588
0.0713002
0.000448218
0.00181256
0.000793807
0.000134542
0.108341
0.0524125
0.0450883
0.0257443
0.00145883
0.0153671
0.119374
0.0106699
0.34561
0.119078
0.309787
1.03198
1.30576
0.149377
3.98617
5.54352
4.82148
4.12242
2.18106
4.15698
2.91706
1.12687
0.617783
0.802421
16.1738
2.14594
5.24725
77.63
0.0701618
0.0421598
0.0126922
0.0382268
0.633097
0.688332
8.81862
6.6585
0.133745
0.102078
0.0572413
0.0430933
0.443425
0.216855
0.0943096
0.186409
0.00679486
0.0213396
0.0189033
0.00440889
4.16165
7.5343
21.3877
13.1079
252.044
84.4077
54.8069
132.029
5.47251e-07
2.57791e-06
1.50476e-05
2.49027e-06
0.00115658
0.0342587
0.267516
0.0101742
14.6268
55.0206
23.8109
8.27091
1.98216e-07
4.26934e-08
0.00670435
0.0130152
0.000446138
0.000269918
2.32331
15.703
24.7942
5.09487
2.36344e-05
2.24867e-06
5.46403e-07
7.35083e-06
3.76374e-08
2.95204e-08
2.60206e-08
3.40439e-08
6.62846e-05
0.000132641
0.000399062
1.55424
0.308485
1.84496
2.97547
65.1214
106.715
53.3774
118.809
0.0148473
0.0103668
0.00340605
0.00538954
0.175394
0.0321554
0.0582078
0.345411
0.00942324
0.0145797
0.073356
0.0327115
0.000888096
0.00735791
0.00117809
0.000287914
3.1286e-08
4.32531e-08
1.16025e-07
9.23006e-08
0.00127835
0.00144941
0.0180344
0.0161572
0.000185773
0.000458449
0.000295811
0.000159528
1.48811e-07
1.37483e-07
1.95631e-07
5.13019e-07
0.000119784
0.00020822
0.000129076
5.34725e-05
1.54601e-07
1.12194e-07
1.9382e-07
3.87802e-07
0.0139552
0.000633445
0.000435118
0.00347317
2.05068e-06
0.00626069
4002.49
1.95087
0.000415271
3051.33
0.612395
0.000613667
108.367
3.442e-05
20.4039
3.73073e-05
0.000110163
10.5721
3.27703e-05
17.0389
3.79566
0.00116196
0.27718
28.2348
0.327098
22.9221
0.383138
1.73845
0.148731
0.00278011
0.0705474
0.0126852
0.175018
450.999
0.0437668
0.226808
0.0445399
0.0590762