# vtk DataFile Version 2.0
Unstructured Grid by M++
ASCII
DATASET UNSTRUCTURED_GRID
POINTS 16641 float
  0.703125   0.781250 0
  0.632812   0.828125 0
  0.640625   0.835938 0
  0.640625   0.804688 0
  0.648438   0.812500 0
  0.625000   0.820312 0
  0.789062   0.929688 0
  0.796875   0.937500 0
  0.664062   0.945312 0
  0.664062   0.953125 0
  0.664062   0.968750 0
  0.671875   0.960938 0
  0.679688   0.960938 0
  0.679688   0.968750 0
  0.671875   0.953125 0
  0.914062   0.945312 0
  0.914062   0.968750 0
  0.914062   0.960938 0
  0.921875   0.968750 0
  0.929688   0.960938 0
  0.921875   0.945312 0
  0.921875   0.953125 0
  0.929688   0.953125 0
  0.820312   0.898438 0
  0.750000   0.945312 0
  0.570312   0.898438 0
  0.578125   0.898438 0
  0.585938   0.898438 0
  0.523438   0.953125 0
  0.585938   0.890625 0
  0.585938   0.882812 0
  0.515625   0.945312 0
  0.523438   0.945312 0
  0.515625   0.937500 0
  0.570312   0.890625 0
  0.578125   0.890625 0
  0.578125   0.882812 0
  0.570312   0.882812 0
  0.507812   0.937500 0
  0.507812   0.929688 0
  0.976562   0.882812 0
  0.992188   0.898438 0
  0.984375   0.890625 0
  0.968750   0.820312 0
  0.976562   0.828125 0
  0.992188   0.812500 0
  1.000000   0.820312 0
  0.656250   0.960938 0
  0.648438   0.953125 0
  0.640625   0.945312 0
  0.882812   0.968750 0
  0.882812   0.960938 0
  0.890625   0.968750 0
  0.906250   0.960938 0
  0.898438   0.953125 0
  0.906250   0.953125 0
  0.898438   0.945312 0
  0.906250   0.945312 0
  0.882812   0.953125 0
  0.890625   0.953125 0
  0.890625   0.945312 0
  0.882812   0.945312 0
  0.539062   0.695312 0
  0.539062   0.718750 0
  0.531250   0.710938 0
  0.554688   0.710938 0
  0.546875   0.703125 0
  0.570312   0.585938 0
  0.578125   0.585938 0
  0.585938   0.578125 0
  0.585938   0.570312 0
  0.570312   0.578125 0
  0.578125   0.570312 0
  0.757812   0.835938 0
  0.929688   0.968750 0
  0.960938   0.929688 0
  0.960938   0.921875 0
  0.953125   0.914062 0
  0.953125   0.921875 0
  0.601562   0.679688 0
  0.835938   0.976562 0
  0.898438   0.718750 0
  0.835938   0.968750 0
  0.593750   0.906250 0
  0.664062   0.914062 0
  0.601562   0.914062 0
  0.609375   0.921875 0
  0.679688   0.929688 0
  0.679688   0.937500 0
  0.796875   0.968750 0
  0.726562   0.945312 0
  0.742188   0.945312 0
  0.726562   0.890625 0
  0.734375   0.898438 0
  0.742188   0.960938 0
  0.734375   0.960938 0
  0.734375   0.953125 0
  0.726562   0.953125 0
  0.523438   0.820312 0
  0.523438   0.828125 0
  0.640625   0.953125 0
  0.984375   0.664062 0
  0.632812   0.953125 0
  0.921875   0.914062 0
  0.914062   0.906250 0
  0.671875   0.929688 0
  0.671875   0.921875 0
  0.664062   0.921875 0
  0.554688   0.945312 0
  0.914062   0.937500 0
  0.718750   0.882812 0
  0.507812   0.867188 0
  0.570312   0.617188 0
  0.742188   0.968750 0
  0.726562   0.976562 0
  0.726562   0.984375 0
  0.562500   0.898438 0
  0.734375   0.984375 0
  0.734375   0.992188 0
  0.742188   0.992188 0
  0.742188   1.000000 0
  0.742188   0.937500 0
  0.734375   0.937500 0
  0.734375   0.929688 0
  0.726562   0.921875 0
  0.726562   0.929688 0
  0.679688   0.843750 0
  0.921875   0.960938 0
  0.914062   0.953125 0
  0.687500   0.851562 0
  0.562500   0.984375 0
  0.554688   0.984375 0
  0.632812   0.937500 0
  0.625000   0.929688 0
  0.554688   0.921875 0
  0.585938   0.984375 0
  0.648438   0.929688 0
  0.656250   0.937500 0
  0.578125   0.914062 0
  0.585938   0.921875 0
  0.578125   0.921875 0
  0.906250   0.929688 0
  0.898438   0.929688 0
  0.898438   0.937500 0
  0.906250   0.937500 0
  0.554688   0.679688 0
  0.554688   0.687500 0
  0.554688   0.976562 0
  0.570312   0.914062 0
  0.570312   0.906250 0
  0.562500   0.906250 0
  0.531250   0.664062 0
  0.539062   0.664062 0
  0.804688   0.976562 0
  0.890625   0.937500 0
  0.890625   0.929688 0
  0.882812   0.921875 0
  0.875000   0.921875 0
  0.882812   0.937500 0
  0.882812   0.929688 0
  0.875000   0.929688 0
  0.546875   0.679688 0
  0.539062   0.671875 0
  0.531250   0.687500 0
  0.539062   0.617188 0
  0.546875   0.671875 0
  0.554688   0.601562 0
  0.742188   0.906250 0
  0.570312   0.968750 0
  0.578125   0.976562 0
  0.585938   0.976562 0
  0.578125   0.968750 0
  0.640625   0.921875 0
  0.828125   0.968750 0
  0.539062   0.929688 0
  0.890625   0.921875 0
  0.898438   0.921875 0
  0.906250   0.921875 0
  0.945312   1.000000 0
  0.945312   0.992188 0
  0.937500   0.992188 0
  0.953125   0.992188 0
  0.953125   1.000000 0
  0.960938   0.992188 0
  0.960938   1.000000 0
  0.710938   0.992188 0
  0.710938   1.000000 0
  0.718750   1.000000 0
  0.960938   0.984375 0
  0.960938   0.976562 0
  0.539062   0.703125 0
  0.718750   0.976562 0
  0.539062   0.875000 0
  0.695312   0.859375 0
  0.703125   0.867188 0
  0.937500   0.984375 0
  0.945312   0.984375 0
  0.953125   0.984375 0
  0.953125   0.976562 0
  0.937500   0.976562 0
  0.945312   0.976562 0
  0.687500   0.976562 0
  0.695312   0.976562 0
  0.882812   0.562500 0
  0.703125   1.000000 0
  0.703125   0.992188 0
  0.703125   0.984375 0
  0.695312   0.984375 0
  0.523438   0.835938 0
  0.867188   0.546875 0
  0.687500   0.984375 0
  0.695312   1.000000 0
  0.687500   0.992188 0
  0.687500   1.000000 0
  0.585938   0.648438 0
  0.523438   0.898438 0
  0.554688   0.898438 0
  0.835938   0.914062 0
  0.539062   0.882812 0
  0.882812   0.593750 0
  0.750000   0.921875 0
  0.820312   0.937500 0
  0.820312   0.929688 0
  0.914062   0.921875 0
  0.750000   0.773438 0
  0.914062   0.929688 0
  0.632812   0.960938 0
  0.843750   0.976562 0
  0.812500   0.523438 0
  0.843750   0.984375 0
  0.523438   0.632812 0
  0.703125   0.812500 0
  0.648438   0.960938 0
  0.992188   0.671875 0
  0.640625   0.960938 0
  0.929688   0.921875 0
  0.921875   0.921875 0
  0.757812   0.781250 0
  0.921875   0.929688 0
  0.921875   0.937500 0
  0.937500   0.929688 0
  0.929688   0.929688 0
  0.765625   0.757812 0
  0.695312   0.804688 0
  0.812500   0.953125 0
  0.648438   0.898438 0
  0.656250   0.906250 0
  0.820312   1.000000 0
  0.820312   0.992188 0
  0.820312   0.960938 0
  0.906250   0.898438 0
  0.554688   0.648438 0
  0.554688   0.656250 0
  0.578125   0.945312 0
  0.882812   0.734375 0
  0.820312   0.984375 0
  0.960938   0.640625 0
  0.828125   0.937500 0
  0.898438   0.890625 0
  0.554688   0.640625 0
  0.554688   0.632812 0
  0.570312   0.937500 0
  0.562500   0.929688 0
  0.632812   0.882812 0
  0.867188   0.718750 0
  0.875000   0.726562 0
  0.804688   0.968750 0
  0.812500   0.976562 0
  0.562500   0.875000 0
  0.804688   0.945312 0
  0.812500   0.945312 0
  0.953125   0.632812 0
  0.945312   0.625000 0
  0.890625   0.882812 0
  0.882812   0.875000 0
  0.546875   0.632812 0
  0.531250   0.632812 0
  0.539062   0.632812 0
  0.539062   0.625000 0
  0.546875   0.656250 0
  0.546875   0.648438 0
  0.546875   0.640625 0
  0.539062   0.640625 0
  0.531250   0.640625 0
  0.539062   0.656250 0
  0.539062   0.648438 0
  0.531250   0.648438 0
  0.531250   0.656250 0
  0.843750   0.921875 0
  0.835938   0.921875 0
  0.843750   0.929688 0
  0.609375   0.890625 0
  0.851562   0.992188 0
  0.726562   0.835938 0
  0.585938   0.656250 0
  0.585938   0.664062 0
  0.523438   0.906250 0
  0.796875   0.960938 0
  0.789062   0.960938 0
  0.609375   0.648438 0
  0.601562   0.640625 0
  0.601562   0.648438 0
  0.593750   0.648438 0
  0.546875   0.898438 0
  0.539062   0.890625 0
  0.750000   0.914062 0
  0.539062   0.898438 0
  0.531250   0.898438 0
  0.828125   0.976562 0
  0.664062   0.828125 0
  0.726562   0.578125 0
  0.601562   0.882812 0
  0.593750   0.875000 0
  0.734375   0.585938 0
  0.890625   0.742188 0
  0.742188   0.593750 0
  0.671875   0.835938 0
  0.835938   0.984375 0
  0.828125   0.984375 0
  0.828125   0.992188 0
  0.828125   1.000000 0
  0.843750   0.992188 0
  0.835938   0.992188 0
  0.835938   1.000000 0
  0.843750   1.000000 0
  0.570312   0.742188 0
  0.562500   0.742188 0
  0.507812   1.000000 0
  0.546875   0.664062 0
  0.898438   0.804688 0
  0.554688   0.671875 0
  0.890625   0.960938 0
  0.554688   0.664062 0
  0.757812   0.960938 0
  0.507812   0.960938 0
  0.578125   0.648438 0
  0.570312   0.648438 0
  0.562500   0.648438 0
  0.515625   0.898438 0
  0.507812   0.898438 0
  0.523438   0.765625 0
  0.585938   0.515625 0
  0.875000   0.960938 0
  0.898438   0.960938 0
  0.734375   0.812500 0
  0.898438   0.968750 0
  0.750000   0.828125 0
  0.906250   0.968750 0
  0.742188   0.820312 0
  0.507812   0.992188 0
  0.851562   0.703125 0
  0.789062   0.953125 0
  0.867188   0.773438 0
  0.710938   0.593750 0
  0.812500   0.984375 0
  0.812500   0.992188 0
  0.804688   1.000000 0
  0.570312   0.960938 0
  0.562500   0.960938 0
  0.562500   0.953125 0
  0.554688   0.953125 0
  0.640625   0.890625 0
  0.617188   0.742188 0
  0.796875   1.000000 0
  0.796875   0.992188 0
  0.789062   0.992188 0
  0.609375   0.742188 0
  0.687500   0.570312 0
  0.789062   0.984375 0
  0.601562   0.734375 0
  0.593750   0.726562 0
  0.601562   0.726562 0
  0.539062   0.976562 0
  0.867188   0.804688 0
  0.750000   0.953125 0
  0.757812   0.953125 0
  0.570312   0.703125 0
  0.562500   0.695312 0
  0.570312   0.695312 0
  0.687500   0.945312 0
  0.695312   0.945312 0
  0.773438   0.945312 0
  0.781250   0.945312 0
  0.695312   0.921875 0
  0.703125   0.921875 0
  0.585938   0.640625 0
  0.593750   0.640625 0
  0.585938   0.632812 0
  0.593750   0.632812 0
  0.523438   0.890625 0
  0.531250   0.890625 0
  0.523438   0.882812 0
  0.531250   0.882812 0
  0.781250   0.953125 0
  0.765625   0.960938 0
  0.578125   0.703125 0
  0.578125   0.710938 0
  0.585938   0.710938 0
  0.585938   0.718750 0
  0.851562   0.789062 0
  0.710938   0.960938 0
  0.710938   0.968750 0
  0.718750   0.968750 0
  0.562500   0.734375 0
  0.570312   0.734375 0
  0.570312   0.726562 0
  0.562500   0.718750 0
  0.843750   0.695312 0
  0.507812   0.984375 0
  0.578125   0.734375 0
  0.578125   0.742188 0
  0.585938   0.742188 0
[...]
CELL_DATA 16384
SCALARS scalar_value float 1
LOOKUP_TABLE default
16.1107
11.778
15.8782
17.5347
9.26008
9.88009
13.4789
16.7742
5.96667
5.87972
4.54987
4.97382
0.0349787
0.0457371
0.0587067
0.0553651
0.0512756
0.0469552
0.0378899
0.0595184
0.121841
0.0815362
0.0509239
0.0608109
0.0872944
0.0714087
0.122803
0.176491
7.0283
8.58525
1.68131
2.61043
61.3506
22.9451
15.2022
38.9292
20.4241
19.6188
57.636
54.9914
1.80654
7.61482
4.61344
1.23146
0.555912
0.320748
0.790717
1.23814
0.176365
0.108397
0.339249
0.24183
0.123695
0.120306
1.56332
0.496101
0.903934
4.46324
0.0663935
0.0432104
0.0568367
0.0662485
0.0771796
0.0428453
0.0971578
0.146983
0.031922
0.0314186
0.0504801
0.037682
0.0583094
0.0269191
0.0246909
0.025831
0.0705324
0.175106
0.20186
0.0687327
0.188883
0.197192
0.0991731
0.114612
0.736602
0.294315
0.344047
0.886
0.253271
0.414233
0.672196
0.505518
0.378016
0.22721
0.36114
11.8085
7.9472
2.58986
3.70636
0.488564
0.706242
0.674432
12.9203
10.3876
18.196
22.0891
0.116839
0.25822
0.0932921
2.06316
4.96788
6.95437
2.77735
0.143311
1.64971
3.58811
1.89832
1.053
0.432988
0.297725
0.508854
0.155081
0.162572
0.29065
0.0570553
0.0902371
0.08682
0.0682027
0.117896
0.0740129
0.156623
3.61085
10.0463
3.71143
1.18404
69.0035
16.321
9.15743
36.319
170.793
49.9487
172.977
7.8923
21.7422
59.0005
19.8711
0.000951515
0.0018186
0.00140858
0.0141238
0.00450973
0.00204265
0.00561184
0.0238088
0.013258
0.0219428
0.0659727
0.00350241
0.00389784
0.0149654
6.17357e-05
113.381
27.2808
57.6066
6.3333e-05
4.49214e-05
8.52332e-05
627.272
266.507
527.868
2.63194e-05
180.058
312.519
288.971
7.56397e-06
3.57324e-06
3.49139e-06
86.0818
1.80187
1.4384
1.14928
1.56138
3.46782
1.97104
2.79466
5.82517
2.04956
1.75071
4.58015
3.31161
0.922797
0.950765
1.08692
1.14289
0.0135847
0.014369
7.00718
5.62494
8.86801
8.12564
0.0189391
0.0262875
0.0300591
3.91761
3.1421
4.26036
5.12498
0.01484
5.73304
4.10671
3.25715
0.00742117
0.00888773
0.00891678
0.889912
0.670537
1.0824
9.59295
5.51743
9.60944
13.1747
0.00180035
0.00129837
0.000891502
6.29831
6.30175
0.00201404
3.39426
3.36138
2.46202
0.00148981
0.00185139
0.00239862
7.08342
15.5882
0.00120941
4.54289
5.01077
4.89058
4.80802
0.00656143
0.00563858
0.00574993
0.00629659
0.0103814
0.0101155
0.011773
0.0169422
0.00769412
0.000581206
0.000752614
0.000384461
0.00131899
0.00110804
0.00147878
0.00125583
0.00120605
0.000614139
0.00117574
0.000761537
104.233
46.2239
93.2753
514.008
659.67
2425.57
27.4747
124.548
100.61
41.2053
9.70763
27.4386
53.1598
18.4654
27.9903
29.0859
10.5881
13.6405
68.0079
42.7115
57.6922
85.8146
74.8405
54.4671
92.5191
90.4583
0.0768369
0.0502613
0.0898926
0.000884416
0.00615997
0.010935
1056.45
0.0165831
6.90837
25.3713
19.7572
4.54373
0.0255598
629.611
0.0244124
789.806
0.115044
375.087
1.2256e-05
87291.3
97880.7
162455
1.44518e-06
11.0173
0.179795
13.7399
0.188638
22.4075
0.107002
557.051
32.2101
0.0561767
35.3374
13.111
3.17962
3.55171
4.59908
26.408
3.69619
5.85037e-06
184.3
3.73743
5.50022e-06
2.08747e-06
3.0454e-06
0.018243
1157.35
0.0468992
3.36674e-05
69.3612
2.72408e-05
0.20593
86.2109
156.476
1.58388
1.81928e-05
64.6162
0.0279094
0.0209627
0.024729
1.46346e-05
0.0278036
1.32069e-05
60.066
0.0617377
0.0424792
1.38054
0.227734
2.47019
0.407845
8.45769
1.35883
5.78836e-06
3.03014
2.78533
0.0280201
2.49663
0.551157
0.0581885
2.45184
0.306567
2.55575
2.44216
0.0701983
0.000634108
5.36156
0.00133285
0.00104489
0.000231691
0.268269
1.97822
0.00943533
3.04487
0.260231
0.264504
3.19146
1.15026
0.782784
2.22325e-05
3.89861
0.687571
2.44809
1.26129
2.87275
1.1026
0.00120077
0.000554655
0.000259588
41.9202
0.000336054
0.674404
2.93409
2.95664
3.30122
3.56291
2.47999
16.3049
0.27543
14.9857
0.978317
0.0174878
33.5136
0.0107804
0.0270791
7.52918
0.0374369
0.089733
0.738435
0.687415
0.85581
6.29615
0.0142966
6.02054
0.00583697
0.00435522
8.41394
0.00134811
0.00516863
23.7573
0.00646657
0.00228974
131.331
2.97141e-05
2.4733
0.112988
0.592378
0.647858
2.85454
2.54482e-05
9.23134e-05
2.83306
7.05364
3.23613
2.30284
1.07675
23.5294
1.339
5.33084
3.49968
1.24354
2.73323
4.97244
0.0386221
0.0106193
0.0194063
0.163578
0.22262
0.0217484
0.195407
0.0141517
0.0843321
0.0547156
0.00583538
1.42008e-05
0.00620178
2.12162e-05
2310.48
76.4709
0.0120582
0.142632
78.7321
0.270267
0.520184
0.00466516
1.33007
0.00140306
0.863484
0.00545623
1.3869
224.911
2.11167e-06
7.09473
0.0111332
3.26987e-05
0.01176
1.95372e-06
0.00712247
0.000119032
9.80231
0.0247587
0.0233619
0.0701449
7.06438e-06
93.3321
0.0158322
0.00409731
3.34044
0.0152758
2.29413
0.0293722
0.206856
2.17127
0.000232047
0.000148135
10.8272
9.81299e-05
5.11165
3.76772
5.06157
15.2715
0.000424608
0.000732618
10.1959
0.000232369
0.80221
0.000105497
3.23058
0.000143324
1.17646
58.8081
0.0387649
69.1891
0.110502
33.1892
0.000153539
6.29414
0.000224375
5.50062
0.000115529
4.3997
0.0956788
20.7622
0.1858
15.1426
38.8379
149.999
0.0062854
0.0389097
0.0228742
0.0209881
0.0050633
0.0187746
1.78501
117.314
80.8629
90.1275
135.275
43.9974
0.0141035
0.115316
0.00279669
0.0164478
0.0252251
7.08527e-05
43.2876
0.673089
272.773
15.1134
0.000143394
0.00022685
0.000299396
0.000136624
0.000189631
9.05703e-05
0.000159831
0.609185
3.55636
0.667599
0.229929
173.553
0.115449
1.40471
5.40253
0.0108497
0.00834635
0.0437284
0.0247434
0.00346637
0.0024596
0.00354634
0.00148163
0.00291015
0.0147016
0.124884
0.0506507
0.244812
0.0393089
1.65168
1.30813
1919.13
59.2082
0.0359821
1.13945
0.101844
1.0539
0.0577776
2.30495
258.913
0.0157946
95.9744
0.302673
0.195137
0.457761
0.361947
1.05985
1128.36
0.619327
25.4382
27.0918
9.33521
0.698894
1.15688
129.405
0.353943
0.798756
12.8796
1.42748
89.5472
0.00028037
0.000226607
76.4415
0.000175422
8.97291e-05
0.870585
3.98558
0.240796
0.700575
89.325
0.00127102
0.0178269
0.00722263
0.0409146
121.071
0.0681247
0.0429975
0.0304598
0.360002
0.203789
0.599949
2.24777
0.123718
0.000327912
0.123172
0.00575517
0.130659
0.000153552
0.000112412
0.00795844
0.866742
0.0383253
0.0463418
2.2233
0.00801061
8.02112e-07
5.71005
0.718924
0.0331398
7.73507
0.0270652
132.971
0.0264242
73.9796
8.46552e-05
0.693726
0.103237
5.75164e-05
0.106732
0.351555
0.123623
0.576108
0.292814
0.207391
0.250084
0.171319
0.000323361
0.00070867
0.0672463
0.237187
0.123086
0.0735844
0.23366
0.15267
0.55963
4.87969e-06
2.92938
0.019068
115.497
0.0244607
0.739958
0.0342746
177.681
2.30492e-06
1.94983
1.52598e-06
3.92096
3.56671
0.000313968
9.10025e-07
3.58974
0.019382
0.014059
2.00868
0.0257438
2.00066
6.75805
0.598808
2.4081
8.80174e-06
1.96412
6.8897e-06
3.05072
0.396781
1.21651
0.993147
0.27568
256.305
0.356022
6.51747
140.351
3.64761
3.96006e-06
9.43272
1.98912e-06
4.35932
2.12762
0.811764
1.96109
1.21397
0.000145968
8.17267
0.00097854
0.000139225
14.2725
1.11078
0.562926
0.715521
0.261578
5.36873
0.464072
3.34196
3.44705
2.22435
4.09759
0.567471
106.075
0.0288435
0.000140675
3.39666
0.000194841
1.65848
0.00269043
1.27386
1.99081
3.98735
0.611921
2.54901
0.00253314
9.23858e-05
3.27026
0.00229353
0.00285008
6.93327e-05
4.96069
2.12757
0.732601
1.87523
0.65849
3.29342
0.00118322
0.000124875
3.89823
0.00112361
0.181354
1.14549
0.634225
0.00899899
2.90927
0.0167052
0.371283
3.73925e-05
0.00063282
0.0251757
0.746925
0.641425
0.100723
0.000306433
12.6945
0.000290033
8.24465
0.000752637
18.0534
0.000775672
0.000667926
9.7865
0.000283139
6.98243
0.000556989
0.00127172
13.744
67.3258
0.584745
17.6827
0.91918
0.806495
0.0569362
9.87395
43.8779
0.288767
6.49257
0.110924
5.5708
71.3459
0.41563
16.2852
60.9876
70.6566
0.206264
0.880774
2.56557
0.0302927
1.07736
0.630989
1.40274
1.82639
0.529757
0.9379
34.1659
3.0098
0.0352947
0.000159948
8.56681e-06
6.35769
34.5978
18.4355
159.066
1.99408
2.77993
0.000338015
0.559836
1.0152
0.633076
0.000336102
285384
26.2643
4.28859
3.87074
2.3516
128.195
0.031717
119.656
0.0521677
14.6964
0.0509629
7.81222
8.37118
2.39039
0.00208863
0.000675781
5.40299
0.102511
13.4751
0.0769885
3.43503
0.0410947
9.00867
0.176463
0.0164339
7.66193e-06
1.72702e-06
13.5236
2.10875e-06
0.061124
66.9293
2.71681e-06
0.352213
6.98231
0.588289
7.25874
1.27716
0.161402
2.83619
4.92609
3.51903e-06
0.322824
18.7127
0.133829
258.096
52.7421
58.5367
0.0001445
0.0846721
0.0375278
152.155
0.00176582
0.0355947
3.41029
0.0670825
319.688
0.000450723
0.120717
0.0123267
0.00140155
0.0236746
2.27293
0.0232515
2.08989
0.00025086
0.0458515
0.0902343
0.179943
0.564256
0.24981
10.272
0.000488139
0.844874
0.000596384
0.610486
0.00166083
0.394037
0.00131398
0.797895
0.00248714
0.47916
0.00117626
1.22924
0.00198565
0.81219
0.00422742
0.434305
1.66684
3.28275
0.0262576
1.85123
0.00141501
0.000964296
0.000582517
0.000887605
0.000264461
8.9592
0.000825433
0.00129095
1.49894
0.000733639
1.31471
0.000603669
1.11705
0.00090403
0.0904351
1.59424
0.000484642
1.71684
0.000646792
1.62903
0.000236581
2.72268
0.000366823
0.00212685
54.457
0.00198931
0.00828516
0.00121108
0.0373134
16.8725
0.00233551
0.00231939
8.3137
0.00250893
9.70292
0.000183047
9.51002
0.000731368
0.000495473
26.0288
0.000205892
6.06546
2.28027
0.173003
1.6782
0.201546
0.262115
57.8837
0.129775
0.527032
0.0644522
193.702
0.0220618
3.0368
3.03695
0.12237
5.6133
0.111741
43.5086
0.107696
0.451676
47.3455
6.09528e-05
0.180464
0.495797
0.481453
0.0233924
2.8691
1.70299
744.939
1.39765
1.60748
36.1221
0.00936439
2.27797e-05
0.409158
25.3834
1.22559
0.562383
1.74047
0.301337
0.610271
0.656348
31.4961
0.0406662
43.2066
5.27981e-05
0.464589
0.551568
60.9607
0.624769
0.670715
29.7664
2.23886e-05
2.30571
0.544662
1.47446
0.0800027
0.732534
0.143742
0.00145949
0.328652
0.728353
0.0735042
0.61861
0.450889
0.0235639
0.933102
10805.3
0.615163
0.370127
0.926683
0.975128
0.420911
1.83516
3.14359
0.618925
8.0046e-06
0.266655
0.000383675
1.07115
0.000469513
1.45712
0.00144401
0.961556
0.00153301
17.3027
0.0153444
82.6857
0.00027129
3.66199
0.00132756
2.27451
0.00119915
2.30929
0.000415663
0.214173
35.8431
38.3679
54.1081
33.8063
13.9788
0.0399015
10.5082
4.84835
47.975
0.00154845
1.55423
1.00483
0.0266209
1.37309
130.829
0.019253
2.41938
10.0997
4.12725
0.00375319
0.00714155
0.622185
0.789687
0.0165731
0.00369921
3.20938
5904.57
0.267795
0.00306001
0.39142
1.82738
0.00743168
0.0161784
0.712176
0.916901
0.59777
0.00809126
0.0227288
0.706184
0.475981
0.0166845
1.73584
0.576126
0.00757475
13.7641
0.088083
70.2235
0.671021
0.000995504
1.19695
2.16397
0.00122546
3.02797
0.572317
1.40361
1.86817
57.9741
0.00195557
5.6964
21.4258
0.64934
0.003462
0.650995
2.0592
14.1236
3.75039
0.75124
0.016627
2.6475
0.659777
0.319833
4.07907
0.607296
3.46282
11.1289
0.165997
0.0880623
1.93071
0.386079
4.59524
0.236673
0.91337
0.558045
5.14454
0.000111443
9.48126
0.201794
0.139684
0.0157631
35.3747
10.2114
0.105934
21.4014
0.205475
0.000315513
0.100202
105.726
139.285
0.000964566
0.609355
0.245755
0.000198611
0.0583266
5.21833
23.6738
0.020994
1.64487
0.315479
0.597802
5.47278
37.2501
6.53559
16.837
8.13965
0.155878
11.267
7.32303
3.19313
39.0351
5.27161
16.2163
0.000650179
1.82116
0.0112335
0.0155566
2.18768
0.504638
49.8675
1.29623
3.53889
23.8313
0.000316744
2.34278
0.00159896
2.40375
45.9776
2162.38
0.358094
1.35612e-05
0.0222502
0.275106
3.9575
0.00132539
1.78648
0.173854
0.0789203
0.110385
4.89122
0.00666687
0.121871
1.64079
78.5562
0.322485
0.00386259
2.86145
0.397243
1.24011
0.00317163
0.80158
142.704
238.438
0.160091
707.595
0.0563155
0.395789
0.00393276
0.00170469
535.286
0.0141523
12.7607
0.0997251
0.343242
0.107265
7.18615
41.7553
6.49471e-06
0.00878545
15.5723
0.140079
89.5054
0.0329993
0.00722948
6.39197
0.0254755
324.499
0.00105517
4.1588
0.00549964
1.06404e-05
3.6237
0.00680127
0.011184
7.48076
11.2954
12.8365
0.00613424
0.0115302
0.107609
121.103
2.26095
0.00497181
15.0607
0.000768336
13.6595
0.0759782
0.237246
32.5848
0.0573704
0.0175777
3.5648
0.000199095
20.6037
14.1171
0.0282489
0.0312923
0.225112
122.871
3.21383
82.8729
0.00151309
0.161696
0.00398339
39.515
0.952077
26.89
0.00534726
12.9778
0.0450682
0.000770979
40.4053
0.00985519
22.1361
0.0585871
0.526663
0.104206
0.056575
0.0059925
32.2222
2.44723
0.431918
0.12201
0.0572884
82.3735
4.58348
8.03483
0.0769977
0.000837067
0.00587677
8.07133
42.449
0.000487546
0.775569
0.0475575
0.000412942
0.0236307
2.25713
0.00386234
107.139
0.00233337
0.00619331
0.0207884
0.0312227
139.114
2.81165
0.324555
0.00147954
44.0699
0.143743
0.00239891
0.26483
0.00393481
0.00216881
2.39841
180.105
0.124963
1.37723e-06
5.13494
5.21714
0.0134533
0.0257974
6.12373
0.0635678
0.00550818
2.68226
0.0304124
4.81024
0.0263492
0.0818232
0.0111738
0.388597
0.145879
0.000182022
1.63087
0.44267
144.144
5.34905e-05
0.216736
0.224453
2.67216
0.335046
0.97392
333.793
4.7913
0.00050012
0.00306286
0.0223768
3.63927
128.125
8.08415e-05
19.6615
0.935012
0.822335
1.42105
0.96362
0.000152641
588.834
3.08751
0.00815685
0.24163
0.457775
2038.36
1.20435
2.47832e-06
0.241907
5.23514e-05
3.69141
0.0540376
3386.63
0.421362
6.90974
3.96475e-05
7.37732
3.36452e-06
36.2007
3777.56
0.303855
1.02088
0.598233
1.16269
4.8918
272.782
0.000280286
4.34619
0.213233
0.532589
0.101171
0.633253
0.489187
0.0673554
0.338085
0.000443694
0.246429
0.384579
93.5929
1.32138e-05
0.00621177
0.0414499
0.212353
5553.14
5.54824e-05
0.000382917
38.1123
0.174164
11.2531
0.569452
28.4991
136.21
0.000170489
950.553
1.35603
0.247877
0.573344
0.0631686
0.519665
12.4712
137.599
7.86308
145.842
4.36683e-05
72.3644
33.275
0.00190498
0.731637
0.0469669
94.339
12.0339
0.652715
0.00082925
137860
0.0181103
64.2594
63.1053
59.9708
49.8432
54.1126
71.3359
1.88862
0.000434357
35.6945
0.169937
1.99412
0.000510237
2.41412
0.000382923
12.7244
1.57213
0.475136
0.19858
0.256734
107.774
3.03984
152.938
0.089289
0.028271
0.541462
2.19597
45.0994
0.035429
1.04714
0.350346
2.31221
1.27811
1.34324
0.0811366
0.279289
170.351
2.67335
81.0563
0.023731
8.5696
0.00142654
1.33506
0.500978
1.48109
0.122299
162.372
0.0999426
0.277059
5.19218
3.54127e-06
4.92105
19.4557
0.67624
0.00493035
0.218337
2166.18
0.296051
0.0295392
245.756
4.88379e-05
0.130372
0.023853
1.39599
0.463035
32.8329
2.52282e-05
279.745
0.43653
1.11132
0.025654
0.554329
85.3124
16.3671
0.364185
211.415
2.25113
0.000478246
5.87874
2.90685
10.2476
3.72861
0.00196493
0.07309
0.00149394
166322
0.000229359
0.000358445
0.00418357
1.21616
0.00461257
0.117286
10.6865
0.0474291
2.75145
0.933073
5.0807e-06
18254.4
3.05403
5.27722e-05
0.000301314
0.678756
0.00338876
0.0644071
9.8069
0.0493472
450567
0.0113196
6.6902
0.0759429
0.00853142
0.0564806
0.00763607
245013
128.913
0.488466
0.654404
0.000681632
3.31865
10.2882
1.8587
3.30888
1.22711
0.00163068
582517
3.72495
0.000453916
3.03655
4827.63
0.797952
0.00176649
0.108118
235.416
13.525
0.191457
556266
0.00686424
0.000327526
0.00276198
2.17761e-06
4375.51
0.000856295
0.000333751
11.2614
8.35722
17.701
4.06734
2.25271
2.25852
0.000292242
1741.98
0.567802
203743
0.00664953
0.000306989
14.4125
2493
0.00145769
0.00074884
222088
8.94194
0.0224578
0.000236504
6616.54
0.00140717
2.38066
4.26457
0.274986
0.000111196
2.37453
0.0730454
123109
2.22573
3.17418
12.3454
0.00432192
105951
0.000764836
0.00401197
9.95514e-07
7.11855
6.27224e-06
9894.28
3.23288e-05
0.859255
1.63181
0.0468455
0.00018557
13.7289
3.43683
403.812
3.18111e-05
0.00084972
2.08148
1.55445
0.00133693
6.62266
4.57609
4014.4
0.022161
11.8977
2.11836
0.00773156
5.14763
2.97464e-05
24673.7
5.15848e-05
11853.5
66.6319
0.00753034
7293.4
0.00952147
0.00541718
72759.1
0.722605
0.0170952
0.000643838
30696
4.13503
1.56605
3.97989e-05
0.000528373
1.95586
25235.3
1.49225
0.000744905
10527
0.0130778
0.511068
0.000565149
1.63453e-05
14240
1.59003
0.476322
1.79149e-05
11501
0.00192708
8791.46
0.00996353
0.00177011
61086
0.000887725
0.00117402
3.23326
21144.6
13.2484
7.62464e-05
0.998847
5.58827
4.5927
0.00044844
33129.1
0.00133523
0.000279693
44784.8
2.86088
0.00168263
1.11315
0.00144211
964.31
0.0475302
1.3733e-05
3096.98
1.33985e-05
0.00202214
32524.1
1.96624
0.00360804
0.000162412
12266.1
1.54393
7.36835
9.2468
0.000763985
2.6563
0.0543834
45925.7
5.13151
1.09737
1.95947e-05
18667.2
3.12586e-05
0.000873281
2.23351e-05
4976.46
130.918
1.50722e-05
0.00133354
0.239952
0.00189774
5651.96
0.0123736
1.08993
0.000147027
2848.76
0.236463
0.000931791
96.9975
4.28947
0.000649005
0.307707
1.03274
0.351683
0.221787
0.0547968
1784.53
0.000131017
1.04203
2155.87
2.0762
0.000365335
2.67939e-05
0.0260258
8213.81
0.246636
0.463586
0.00995823
4.55493
57239.2
7.9345e-05
0.00351363
0.715981
0.00651631
3.04571
3.44649e-05
0.00303446
0.0194084
4878.38
0.282238
17.7584
0.00191327
1.07095
0.626829
21.2338
1.68288
0.641518
1604.67
5.10426
0.00049087
7.5846e-05
0.015026
2445.92
0.537034
0.796627
0.0168204
0.000163745
0.002427
0.0207398
918.118
1.22102
0.0120004
0.781408
18.5489
0.038634
0.982166
1235.54
8.24599
0.000729407
0.000300257
0.017808
409.099
1.41528
52.1891
442.02
0.0749575
37068.1
8.47303e-05
0.669453
7.74769
0.0371096
14575.1
0.000974368
0.695309
0.00038211
0.0759913
1.05301
0.977744
77.4011
21.938
0.586526
0.133466
1.04536
57.8548
0.0488841
0.988214
94.363
0.341414
56989.2
8.08057e-05
0.0726533
15.4227
0.00225592
83353.9
0.000140051
0.30965
0.0548266
8261.86
7.5259
3.05518
6.13963
0.000219107
127856
0.000268042
0.00223637
3.20485
0.019133
4.1064
57250.6
4.83859e-06
1.03669
3.97879
7.61358e-06
0.305158
0.53468
10.6882
0.000499363
0.0910999
1.26598
1.00589e-06
4.02684
1.84159
0.000278534
4.29284
123.918
0.0544686
0.161134
12.2933
1.14104
0.135774
0.437839
0.011659
3.54082
0.000265517
0.0232148
0.0534698
3.69555
45.4481
0.235572
0.0715021
204822
6.1602e-05
5.62142
3.33858e-06
0.910716
15.2954
0.00252963
0.0612612
3.26865
0.00117728
30.4257
0.141587
0.00338641
2.50038
0.190361
3.01302
0.000428346
0.000162919
0.345626
0.027431
0.497257
0.112596
4.87894
0.036044
10157.2
0.00104254
0.000213739
142.556
0.0496756
0.366431
0.604198
29.4733
2.38577
0.000276631
0.514488
2.97722
0.0891452
1.4332e-06
3.38522
0.508717
0.00923037
1.14827
0.0934786
0.258409
0.40151
27017.9
4.91519e-05
0.0031423
0.00109544
4.0001
62.7955
0.006363
0.040316
1.11414
119.641
0.20362
0.0660683
0.59572
131.941
0.0935804
16133.8
0.00056861
0.000142954
0.000401699
4.3094
0.00327946
215.623
0.0406122
37723.8
2.5986e-05
0.0117238
0.000241106
0.00267409
1.37492
280.345
0.765037
0.378982
0.0336168
73707
3.21184e-05
0.0278762
0.220077
0.000381271
1392.97
15.1246
11.2135
0.710573
0.342611
2.80549e-05
0.276754
10371.5
5.76753e-05
46.0307
605.915
0.0429599
0.442464
0.0754708
7.63447e-05
0.109937
1219.62
0.276317
0.00066899
0.00231532
2.53125
329.347
0.00135663
4.12507
0.00241797
291.996
2.2389e-05
0.00107162
0.445147
0.105839
0.0640581
0.0139874
0.00315283
4.06613
0.00314424
0.000855782
0.000720418
0.00133769
8.41272
1.15837
6.33771
55.9873
8.24299
1.57093
138.035
5.11775
6.13088
9.02763
0.870154
0.260118
16.0901
12.0623
5.75079
4.86648
19.08
3.97472
0.320421
4.7825e-05
14.6932
2.59845
3.57448
132.62
32.5829
6.02225
0.086199
0.707158
64.5622
10.6405
7.7404
0.0684988
0.75881
45.613
6.95983
0.0282734
0.473237
43.7872
11.5328
0.0212245
0.536726
45.9671
59.809
45.8577
128.855
0.115354
5.77212
0.146201
2.63671
0.0414198
0.0804638
2.46145e-06
7.69071
0.000371345
2.89449
0.0482511
0.00522988
0.0169078
0.115687
13.7038
0.00914589
1.36279e-05
1.30053e-06
12.534
0.141143
0.0211724
0.00674142
5.89262
0.126911
0.0659777
3.02536
2.15623
5.29301
1.11966
2.69037e-06
4.01079
0.056208
0.00146509
6.56384
4.29881
1.36999e-06
84.5394
0.000404009
0.0472395
0.000581453
1.59183e-06
11.9651
0.000998436
36.6263
22.282
6.93866
0.0975946
9.83604
5.79702
3.33477e-06
0.505157
1.02273
0.00112153
0.216825
0.197492
24165.6
3.4463e-05
347.786
1.20166
0.217321
0.0106442
0.000499114
0.814193
944.811
0.212532
0.0500783
0.504596
1.18861
0.385115
0.0426406
0.71267
0.291239
0.152958
1.32618
0.667114
0.673008
0.307742
3.81177
0.0205702
128373
7.56081e-05
0.0472472
0.219301
0.256527
191842
0.000152838
0.0161447
0.10946
0.316517
511203
0.000684259
0.0368055
0.302206
0.087042
0.283833
0.859851
0.187989
0.11951
0.444174
1.54396e-05
0.000528783
3.22969e-05
1.96232e-05
1.80076e-05
269.67
0.717664
2.87712e-05
1.82341e-05
88.5875
4.90313e-05
4.17594e-05
44.181
1.71849e-05