# vtk DataFile Version 2.0
Unstructured Grid by M++
ASCII
DATASET UNSTRUCTURED_GRID
POINTS 81 float
  1.000000   0.625000 0
  0.750000   0.375000 0
  1.000000   0.000000 0
  0.875000   0.875000 0
  0.750000   0.125000 0
  1.000000   1.000000 0
  0.875000   0.250000 0
  0.625000   0.875000 0
  1.000000   0.750000 0
  0.875000   0.000000 0
  1.000000   0.250000 0
  0.625000   0.375000 0
  0.875000   0.500000 0
  0.625000   0.625000 0
  1.000000   0.500000 0
  0.750000   0.500000 0
  0.750000   1.000000 0
  1.000000   0.125000 0
  0.625000   0.250000 0
  0.750000   0.750000 0
  0.625000   0.000000 0
  0.125000   0.375000 0
  0.000000   0.500000 0
  0.125000   0.625000 0
  0.625000   1.000000 0
  1.000000   0.875000 0
  0.875000   0.125000 0
  0.500000   0.250000 0
  0.625000   0.500000 0
  0.250000   0.625000 0
  0.000000   0.625000 0
  0.375000   0.500000 0
  0.375000   0.000000 0
  0.000000   0.125000 0
  0.125000   0.875000 0
  0.875000   1.000000 0
  0.750000   0.250000 0
  0.375000   0.375000 0
  0.250000   0.375000 0
  0.625000   0.750000 0
  0.125000   0.125000 0
  0.500000   0.000000 0
  0.250000   0.875000 0
  0.125000   0.500000 0
  0.500000   0.375000 0
  0.125000   0.000000 0
  0.250000   0.750000 0
  0.250000   0.500000 0
  0.000000   0.875000 0
  0.875000   0.625000 0
  0.500000   0.750000 0
  0.750000   0.625000 0
  0.250000   0.000000 0
  0.375000   0.750000 0
  0.750000   0.875000 0
  0.625000   0.125000 0
  0.250000   0.250000 0
  0.375000   1.000000 0
  0.375000   0.250000 0
  0.000000   0.375000 0
  0.500000   1.000000 0
  0.875000   0.750000 0
  0.750000   0.000000 0
  0.375000   0.125000 0
  0.500000   0.875000 0
  0.000000   0.000000 0
  0.125000   0.750000 0
  0.500000   0.625000 0
  0.125000   0.250000 0
  0.500000   0.125000 0
  0.250000   1.000000 0
  0.250000   0.125000 0
  0.000000   1.000000 0
  0.375000   0.875000 0
  0.000000   0.750000 0
  0.375000   0.625000 0
  0.000000   0.250000 0
  0.125000   1.000000 0
  1.000000   0.375000 0
  0.500000   0.500000 0
  0.875000   0.375000 0
CELLS 64 320
4 56 71 58 63
4 27 58 69 63
4 41 69 32 63
4 76 33 68 40
4 27 44 58 37
4 79 31 44 37
4 56 38 68 21
4 56 58 38 37
4 52 32 71 63
4 47 38 31 37
4 76 68 59 21
4 22 59 43 21
4 65 45 33 40
4 47 43 38 21
4 52 71 45 40
4 56 68 71 40
4 74 30 66 23
4 46 66 29 23
4 22 43 30 23
4 72 48 77 34
4 46 53 42 73
4 50 64 53 73
4 70 42 57 73
4 74 66 48 34
4 46 42 66 34
4 47 29 43 23
4 70 77 42 34
4 60 57 64 73
4 79 67 31 75
4 47 31 29 75
4 50 53 67 75
4 46 29 53 75
4 10 78 6 80
4 36 6 1 80
4 15 1 12 80
4 36 4 6 26
4 14 12 78 80
4 2 17 9 26
4 36 18 4 55
4 15 28 1 11
4 62 4 20 55
4 10 6 17 26
4 27 18 44 11
4 62 9 4 26
4 27 69 18 55
4 36 1 18 11
4 41 20 69 55
4 79 44 28 11
4 16 24 54 7
4 19 54 39 7
4 50 39 64 7
4 8 25 61 3
4 60 64 24 7
4 79 28 67 13
4 19 51 61 49
4 8 61 0 49
4 15 51 28 13
4 19 39 51 13
4 50 67 39 13
4 19 61 54 3
4 14 0 12 49
4 5 35 25 3
4 15 12 51 49
4 16 54 35 3
CELL_TYPES 64
8
8
8
8
8
8
8
8
8
8
8
8
8
8
8
8
8
8
8
8
8
8
8
8
8
8
8
8
8
8
8
8
8
8
8
8
8
8
8
8
8
8
8
8
8
8
8
8
8
8
8
8
8
8
8
8
8
8
8
8
8
8
8
8
POINT_DATA 81
SCALARS scalar_value float 1
LOOKUP_TABLE default
-0.248889
-0.159945
0
-0.319197
-0.0826145
-0.352149
-0.123124
-0.34566
-0.288395
0
-0.125149
-0.155007
-0.227141
-0.256687
-0.233952
-0.196721
-0.387568
-0.104846
-0.086804
-0.289183
0
-0.157263
-0.161567
-0.250205
-0.374318
-0.319052
-0.0975678
-0.0886567
-0.185198
-0.232131
-0.257718
-0.192774
0
-0.038196
-0.33381
-0.364131
-0.111686
-0.149153
-0.150605
-0.307058
-0.0354779
0
-0.339821
-0.164994
-0.150301
0
-0.276074
-0.197778
-0.32278
-0.25422
-0.304682
-0.266458
0
-0.290451
-0.333793
-0.0612678
-0.117557
-0.3857
-0.106475
-0.157729
-0.372247
-0.287945
0
-0.059788
-0.340098
0
-0.279701
-0.251237
-0.105133
-0.0596772
-0.418957
-0.0400983
-0.445754
-0.33489
-0.284319
-0.236231
-0.104299
-0.430318
-0.160991
-0.18001
-0.160464
