# vtk DataFile Version 2.0
Unstructured Grid by M++
ASCII
DATASET UNSTRUCTURED_GRID
POINTS 1089 float
  6.250000   0.625000 0
  5.625000   0.625000 0
  1.250000   7.500000 0
  4.375000   3.750000 0
  0.625000   8.125000 0
  5.000000   4.375000 0
  8.750000   4.375000 0
  1.875000   8.125000 0
  4.375000   4.375000 0
  1.250000   8.125000 0
  2.500000   8.750000 0
  9.375000   5.000000 0
  5.000000   3.750000 0
  8.750000   8.125000 0
  8.750000   8.750000 0
  9.375000   4.375000 0
  2.500000   8.125000 0
  9.375000   8.750000 0
 10.000000   8.750000 0
  5.000000   3.125000 0
  1.875000   6.875000 0
  4.375000   6.875000 0
  3.750000   8.125000 0
  4.375000   8.125000 0
  7.500000   4.375000 0
  9.375000   0.625000 0
  4.375000   8.750000 0
  7.500000   5.000000 0
  3.750000   8.750000 0
  1.250000   8.750000 0
  4.375000   5.000000 0
  9.375000   1.250000 0
  3.750000   9.375000 0
  7.500000   5.625000 0
  4.375000   9.375000 0
  7.500000   6.250000 0
  4.375000  10.000000 0
  5.000000   1.875000 0
  5.000000   2.500000 0
  7.500000   6.875000 0
  5.625000   1.250000 0
  6.875000   6.875000 0
  5.625000   1.875000 0
  5.625000   2.500000 0
  6.875000   6.250000 0
  3.750000  10.000000 0
  8.750000   7.500000 0
  6.250000   7.500000 0
  6.250000   8.125000 0
  7.500000  10.000000 0
  1.875000   8.750000 0
  8.750000   5.000000 0
  5.000000   6.875000 0
  8.125000   3.125000 0
  6.250000  10.000000 0
  5.625000  10.000000 0
  8.125000   2.500000 0
  8.750000   1.250000 0
  6.250000   9.375000 0
  6.875000  10.000000 0
  1.875000   7.500000 0
  8.750000   3.750000 0
  7.500000   3.125000 0
  0.625000   6.875000 0
  5.625000   9.375000 0
  8.750000   0.625000 0
  6.250000   8.750000 0
  5.625000   7.500000 0
  8.125000   3.750000 0
  5.000000   7.500000 0
  4.375000   5.625000 0
  8.125000   5.625000 0
  1.250000   9.375000 0
  0.625000   7.500000 0
  7.500000   3.750000 0
  4.375000   7.500000 0
  3.750000   5.625000 0
  0.625000   9.375000 0
  6.875000   8.125000 0
  5.000000   8.750000 0
  8.125000   5.000000 0
  8.750000   6.875000 0
  3.750000   6.875000 0
  5.625000   8.750000 0
  1.250000   5.000000 0
  8.125000   1.250000 0
  9.375000   6.875000 0
  5.000000   9.375000 0
  7.500000   7.500000 0
  5.000000   8.125000 0
  8.125000   4.375000 0
  3.750000   6.250000 0
  0.625000  10.000000 0
 10.000000   8.125000 0
 10.000000   3.750000 0
  3.125000   7.500000 0
  6.875000   8.750000 0
  9.375000   7.500000 0
  5.625000   8.125000 0
  4.375000   6.250000 0
  6.875000   9.375000 0
  0.625000   8.750000 0
  7.500000   9.375000 0
  7.500000   8.750000 0
  7.500000   8.125000 0
  6.875000   7.500000 0
 10.000000   6.875000 0
  9.375000   8.125000 0
  9.375000   3.750000 0
  2.500000   7.500000 0
 10.000000   7.500000 0
  3.750000   7.500000 0
  5.000000  10.000000 0
  6.250000   6.875000 0
  1.250000   4.375000 0
  8.125000   0.625000 0
  7.500000   1.250000 0
  0.625000   5.000000 0
  5.625000   6.875000 0
  8.750000   3.125000 0
  8.750000   2.500000 0
  1.250000   6.875000 0
  3.125000   6.875000 0
 10.000000   3.125000 0
  2.500000   6.875000 0
  9.375000   3.125000 0
  8.125000   1.875000 0
  1.250000   5.625000 0
 10.000000  10.000000 0
  9.375000  10.000000 0
  9.375000   9.375000 0
 10.000000   9.375000 0
  8.750000  10.000000 0
  8.750000   9.375000 0
  8.750000   1.875000 0
  8.125000   6.875000 0
  8.125000   7.500000 0
  1.250000  10.000000 0
  8.125000   6.250000 0
  0.625000   0.625000 0
  9.375000   6.250000 0
  2.500000  10.000000 0
  8.750000   6.250000 0
  1.875000  10.000000 0
  8.750000   5.625000 0
  1.875000   9.375000 0
  9.375000   5.625000 0
  2.500000   9.375000 0
 10.000000   5.625000 0
  3.125000   9.375000 0
 10.000000   6.250000 0
  3.125000  10.000000 0
 10.000000   5.000000 0
  3.125000   8.750000 0
 10.000000   4.375000 0
  3.125000   8.125000 0
  8.125000   9.375000 0
  8.125000  10.000000 0
  8.125000   8.750000 0
  8.125000   8.125000 0
  7.500000   1.875000 0
  0.625000   5.625000 0
  7.500000   2.500000 0
  0.625000   6.250000 0
  9.375000   0.000000 0
  1.875000   1.875000 0
  8.750000  -1.875000 0
  5.000000  -6.250000 0
  4.375000  -6.250000 0
 -5.000000  -9.375000 0
 -5.625000  -6.875000 0
 -8.750000   5.625000 0
  5.625000  -5.000000 0
  5.000000  -2.500000 0
 -6.250000  -9.375000 0
 -6.875000  -6.875000 0
  3.125000   5.625000 0
 10.000000   1.875000 0
 -3.750000   9.375000 0
  3.750000   3.125000 0
 -3.125000   6.875000 0
  4.375000   0.625000 0
 -2.500000   4.375000 0
  6.250000   5.625000 0
 -0.625000   9.375000 0
 -7.500000 -10.000000 0
 -8.125000  -7.500000 0
  6.875000   3.125000 0
  0.000000   6.875000 0
 -6.875000   5.625000 0
 -4.375000  -4.375000 0
 -3.750000  -6.875000 0
 -6.875000   5.000000 0
 -5.000000  -2.500000 0
 -4.375000  -5.000000 0
 -3.750000  -7.500000 0
 -6.250000   5.000000 0
 -6.250000   5.625000 0
  3.125000  -8.125000 0
 -3.750000  -4.375000 0
 -5.625000   3.125000 0
  0.625000   1.250000 0
  7.500000  -2.500000 0
 -6.875000   6.250000 0
 -3.750000  -6.250000 0
 -6.250000   3.750000 0
  1.250000  -2.500000 0
 -5.625000   1.250000 0
 -7.500000   5.625000 0
 -5.000000  -4.375000 0
 -4.375000  -6.875000 0
 -5.625000  -1.875000 0
 -6.875000   3.125000 0
 -6.250000   0.625000 0
 -4.375000   1.875000 0
 -5.000000   4.375000 0
  9.375000  -6.250000 0
 10.000000  -8.750000 0
  6.875000   4.375000 0
  0.000000   8.125000 0
 -7.500000  -8.750000 0
 -6.250000   4.375000 0
 -7.500000   6.875000 0
 -3.750000  -8.125000 0
 -5.625000  -0.625000 0
 -4.375000  -5.625000 0
 -5.000000  -3.125000 0
 -6.875000   4.375000 0
-10.000000   7.500000 0
 -6.250000  -7.500000 0
 -5.625000 -10.000000 0
  4.375000  -3.125000 0
 -5.000000 -10.000000 0
 -5.625000  -7.500000 0
 -9.375000   7.500000 0
  5.000000  -3.125000 0
 -5.625000   5.000000 0
 -5.000000   2.500000 0
  8.750000  -5.625000 0
  1.250000   0.625000 0
  8.125000  -3.125000 0
  9.375000  -8.125000 0
 -5.625000   4.375000 0
  8.750000  -6.250000 0
 -5.625000  -8.125000 0
 -9.375000   6.875000 0
  5.000000  -3.750000 0
 -6.250000  -8.125000 0
-10.000000   6.875000 0
  3.750000  -1.250000 0
  3.750000   4.375000 0
 -3.125000   8.125000 0
  4.375000   1.875000 0
 -2.500000   5.625000 0
 -6.250000  -8.750000 0
  3.750000   3.750000 0
 -3.125000   7.500000 0
  4.375000   1.250000 0
 -2.500000   5.000000 0
  3.125000   6.250000 0
 10.000000   2.500000 0
 -3.750000  10.000000 0
 -5.625000  -8.750000 0
-10.000000   8.750000 0
 -9.375000   6.250000 0
  4.375000  -1.875000 0
  5.000000  -4.375000 0
 -9.375000   5.000000 0
 -2.500000   1.250000 0
 -7.500000  -2.500000 0
 -0.625000  -6.250000 0
 -6.875000  -5.000000 0
  0.000000  -8.750000 0
 -8.125000   0.000000 0
 -1.250000  -3.750000 0
 -8.750000   5.000000 0
 -1.875000   1.250000 0
 -8.125000   2.500000 0
 -1.250000  -1.250000 0
 -6.250000  -5.000000 0
  0.625000  -8.750000 0
  4.375000   3.125000 0
 -2.500000   6.875000 0
  5.000000   0.625000 0
 -1.875000   4.375000 0
 -5.625000  -9.375000 0
 -0.625000  -5.625000 0
 -7.500000  -1.875000 0
  0.000000  -8.125000 0
 -6.875000  -4.375000 0
 -6.250000  -6.875000 0
-10.000000   8.125000 0
 -1.875000  -0.625000 0
 -8.750000   3.125000 0
 -2.500000   1.875000 0
 -9.375000   5.625000 0
  4.375000  -2.500000 0
 -8.125000   5.625000 0
 -6.875000   0.625000 0
 -7.500000   3.125000 0
 -7.500000  -5.625000 0
 -6.875000  -8.125000 0
 -8.125000  -3.125000 0
 -8.750000   4.375000 0
 -1.875000   0.625000 0
 -6.875000  -3.125000 0
  0.000000  -6.875000 0
 -6.250000  -5.625000 0
  0.625000  -9.375000 0
 -9.375000   4.375000 0
 -2.500000   0.625000 0
 -6.875000  -5.625000 0
  0.000000  -9.375000 0
 -8.125000  -0.625000 0
 -1.250000  -4.375000 0
 -8.750000   1.875000 0
 -1.875000  -1.875000 0
 -7.500000  -3.125000 0
 -0.625000  -6.875000 0
 -5.000000  -8.750000 0
 -1.875000   1.875000 0
  5.000000  -1.875000 0
  5.625000  -4.375000 0
 -4.375000 -10.000000 0
 -5.000000  -7.500000 0
 -1.875000   3.125000 0
  5.000000  -0.625000 0
  6.250000  -5.625000 0
  5.625000  -3.125000 0
 -5.000000  -8.125000 0
 -1.875000   2.500000 0
  5.000000  -1.250000 0
  5.625000  -3.750000 0
  3.750000   0.000000 0
 -3.125000   3.750000 0
  2.500000   5.000000 0
 -4.375000   8.750000 0
  3.125000   2.500000 0
 -3.750000   6.250000 0
 -8.750000  -2.500000 0
 -8.125000  -5.000000 0
 -9.375000   0.000000 0
 -7.500000  -7.500000 0
-10.000000   2.500000 0
  0.625000   3.125000 0
  7.500000  -0.625000 0
 -6.250000   6.875000 0
 -3.750000 -10.000000 0
 -4.375000  -7.500000 0
  6.875000  -5.625000 0
 -8.125000   3.125000 0
 -1.250000  -0.625000 0
 -6.250000  -4.375000 0
  0.625000  -8.125000 0
 -3.750000   3.750000 0
  1.875000   5.000000 0
 -5.000000   8.750000 0
  2.500000   2.500000 0
 -4.375000   6.250000 0
 -9.375000  -1.875000 0
-10.000000   0.625000 0
 -5.625000   8.125000 0
 -5.000000   5.625000 0
 -4.375000  -8.125000 0
  6.875000  -6.250000 0
  6.250000  -3.750000 0
  3.750000   0.625000 0
 -3.125000   4.375000 0
  9.375000   1.875000 0
  2.500000   5.625000 0
 -4.375000   9.375000 0
  3.125000   3.125000 0
 -3.750000   6.875000 0
 -8.750000  -1.875000 0
 -6.875000  -9.375000 0
  0.000000  10.000000 0
 -7.500000  -6.875000 0
 -8.125000  -4.375000 0
 -9.375000   0.625000 0
 -7.500000  -6.250000 0
 -8.750000  -1.250000 0
 -8.125000  -3.750000 0
 -6.875000  -8.750000 0
 -9.375000   8.750000 0
  9.375000  -8.750000 0
 -7.500000  -4.375000 0
 -0.625000  -8.125000 0
-10.000000   5.625000 0
 -3.125000   1.875000 0
 -9.375000   3.125000 0
 -2.500000  -0.625000 0
 -8.750000   0.625000 0
 -1.875000  -3.125000 0
 -8.125000  -1.875000 0
 -1.250000  -5.625000 0
 -8.125000  -5.625000 0
 -9.375000  -0.625000 0
 -8.750000  -3.125000 0
-10.000000   1.875000 0
 -5.625000   8.750000 0
 -5.000000   6.250000 0
  1.875000   5.625000 0
 -5.000000   9.375000 0
  3.125000   0.625000 0
 -3.750000   4.375000 0
  2.500000   3.125000 0
 -4.375000   6.875000 0
  1.875000   6.250000 0
 -5.000000  10.000000 0
  2.500000   3.750000 0
 -4.375000   7.500000 0
  3.125000   1.250000 0
[...]
CELL_DATA 1024
SCALARS scalar_value float 1
LOOKUP_TABLE default
2.52182e-08
3.274e-08
4.30556e-09
3.8983e-09
0
0
0
0
0
0
0
0
0
0
0
0
0
0
0
0
0
0
0
0
0
0
0
0
0
0
0
1.58739e-06
2.36087e-07
1.53845e-07
8.75676e-07
0
0
0
0
0
0
0
0
5.87122e-09
0
0
1.4976e-09
0
0
0
0
0
0
0
0
0
0
0
0
0
0
0
0
0
0
0
0
0
0
0
0
0
0
0
0
0
0
0
0
0
1.58602e-07
0
0
0
0
4.22385e-10
0
0
0
7.87212e-08
0
0
0
5.93842e-10
0
1.33082e-09
0
0
2.8152e-09
1.89004e-08
0
6.93005e-09
8.18544e-10
5.69909e-08
0
0
0
2.54371e-09
2.64002e-08
0
0
0
0
0
0
0
0
0
0
0
0
2.34899e-10
0
1.72672e-09
0
2.43262e-10
1.45635e-08
0
3.63912e-10
0
0
3.98704e-07
3.41691e-08
0
5.45177e-10
8.88219e-09
0
0
0
0
4.60596e-09
0
0
4.57771e-10
5.73863e-10
0
1.15971e-10
0
1.31443e-08
0
0
3.02106e-10
0
0
0
1.06557e-09
0
0
0
0
0
0
0
2.86657e-09
0
0
0
0
1.1735e-10
0
0
0
0
0
0
0
0
0
0
0
0
0
0
2.12392e-06
0
0
0
0
0
0
0
2.42954e-07
0
0
0
0
0
0
0
0
0
0
0
0
1.30645e-10
0
0
0
1.60453e-06
1.32823e-10
0
0
0
4.84667e-10
0
0
0
0
1.12963e-07
0
0
0
0
0
0
0
0
0
0
0
0
0
0
0
0
0
0
0
0
0
0
0
0
0
0
0
0
0
0
0
0
0
0
0
0
0
1.24449e-06
6.88664e-07
2.71401e-06
7.96694e-06
1.87632e-06
2.43876e-09
4.38741e-06
6.97419e-10
2.1687e-10
7.74417e-10
0.00817131
0.00567311
0.0126713
0.0187362
1.4728e-09
5.17028e-09
9.13823e-09
0.0252451
0.0102971
0.0100656
0.023803
1.11345e-06
0
1.92831e-10
0
0
0.00236496
0.00330908
2.16195e-05
5.3483e-05
4.59581e-06
1.1947e-09
8.57853e-10
1.98676e-10
2.80974e-10
7.64954e-06
2.88877e-05
9.22823e-06
3.30748e-10
2.63796e-10
3.04698e-05
5.76237e-08
1.70605e-05
1.06238e-07
3.16751e-08
8.49514e-05
8.58096e-07
2.67079e-09
2.68183e-08
1.31149e-09
8.23512e-09
1.0909e-10
4.43906e-10
1.83363e-10
7.3448e-07
7.59047e-05
2.1379e-08
3.14425e-07
2.44022e-07
5.7783e-07
3.80424e-06
0.000265247
5.86629e-05
8.12309e-08
8.65336e-07
6.16861e-08
2.32482e-07
1.69969e-05
2.82933e-10
5.41051e-06
1.75596e-08
3.38772e-07
0.000338615
0.000258696
1.37111e-05
2.23875e-05
0.000144558
5.89101e-07
5.86387e-09
0.000162488
1.73431e-07
8.56119e-05
4.77772e-06
1.92058e-08
2.49932e-07
3.40936e-07
5.09465e-06
0.00173423
3.14459e-07
1.21528e-10
7.32057e-07
5.03076e-08
5.2967e-10
1.97836e-06
0.000610356
2.84141e-06
4.06349e-10
3.30958e-05
2.60333e-05
0
9.32132e-06
0.00092398
8.75994e-08
0.00389131
3.23143e-06
0.000404184
3.96944e-09
7.84054e-05
2.16142e-06
2.27681e-08
7.03824e-08
2.58789e-07
2.88863e-05
3.94844e-08
1.57556e-08
0.00090675
9.59555e-09
1.24657e-05
0.000170077
0.000337376
8.12671e-07
2.33062e-08
8.59215e-08
0.000103657
1.63288e-06
0.000182741
9.89271e-09
0.0138638
0.0214839
0
2.03819e-06
0.000164955
8.62484e-08
0.00840998
0.000129708
6.18813e-07
1.01971e-09
0.000646769
4.8501e-05
0
4.59797e-06
0.000403026
3.97478e-08
0.00519821
1.58455e-07
6.31547e-05
0.00137494
1.07522e-06
0.00144448
5.56594e-07
0.000497839
1.8246e-07
0.000457765
3.44204e-07
0.00125354
2.53666e-07
0.000193553
2.60805e-07
2.04074e-08
2.80201e-06
9.04629e-08
1.85647e-06
0.00104495
3.42863e-10
1.42849e-09
1.47069e-09
3.61507e-10
0.00624121
3.94169e-05
0.00226666
6.93096e-10
9.37998e-07
8.41095e-08
0.000447066
8.60756e-06
1.41316e-08
2.84516e-08
0.000340273
8.88331e-09
0.000118718
0.000150958
4.99667e-09
3.65023e-09
7.33259e-08
1.51885e-08
2.18529e-08
0
0.000224337
7.48881e-08
0
0.000130416
0.00398753
2.06153e-08
0
4.82409e-05
0.00752347
6.206e-09
0
8.06922e-05
0.00306033
5.73755e-06
0.00183118
9.04979e-06
0
2.76407e-05
0.0034444
1.69042e-09
0
1.70112e-05
0.00186074
5.46817e-09
5.17042e-09
2.27866e-09
1.22231e-09
4.2874e-06
1.18055e-06
2.55483e-09
3.49397e-06
0.00394456
0.000240283
1.48925e-05
0.000792083
1.25048e-05
2.4005e-09
5.69051e-10
9.73298e-10
1.40333e-09
5.08865e-09
1.29253e-06
3.851e-09
2.34584e-06
0.000334886
0.000591551
0.00147277
0.000813467
2.32819e-10
6.78352e-05
5.84318e-09
2.26219e-07
3.19457e-05
1.32023e-10
1.23997e-05
0.000837685
1.55348e-07
0
2.5739e-05
0.00191156
6.06966e-08
1.50122e-05
9.76783e-06
1.25724e-05
4.35442e-05
0.000119912
5.04958e-05
1.12852e-10
3.4965e-10
0
0
1.23228e-05
1.64163e-06
3.58851e-05
0.000190914
0
1.54983e-10
0
0
9.60723e-08
3.21501e-09
4.32901e-10
1.32839e-08
6.90164e-06
0
1.43265e-06
0
5.11802e-08
0
0
0
0
0
0
0
0
0
0
0
0
0
0
0
0
6.23649e-06
4.10796e-05
2.2832e-06
3.27293e-07
0
0
0
0
6.54622e-08
0
0
0.000753634
0.000394133
1.29134e-06
0
0
0
0
0
0
0
0
0
0
0
0.000279805
0
0
0
5.14274e-08
0
0
3.13284e-08
0
1.55189e-08
0
0
0
1.01596e-05
0
0
0
0
0.000172692
1.57574e-08
0
0
7.20577e-07
0
0
0
1.44592e-05
3.72019e-10
0
0
2.41601e-07
2.51044e-07
0
0
0.000283271
9.17628e-08
0
1.34537e-09
0
2.44493e-09
0
0
0
0
0
6.75737e-09
5.69857e-05
0
0
7.31554e-07
0
0
2.11168e-09
0
0
0
2.42126e-09
0
2.84294e-10
0
0
0
6.66445e-08
0
0
3.04373e-08
0
2.53045e-09
0
0
0
6.80602e-06
0
0
0
0.00014299
2.90213e-07
0
2.40547e-05
0
0
5.41968e-07
0
4.4679e-07
0
0
0
1.00192e-06
0
1.45664e-06
0
0
1.24957e-09
4.42868e-10
2.38262e-07
0
7.65979e-05
0
0
9.08675e-09
0
8.51281e-10
0
7.38142e-08
0
8.04967e-09
0
3.46971e-08
0
3.06507e-09
2.63588e-06
0
8.69874e-07
0
5.23968e-06
1.869e-05
0
0
0
1.08111e-06
8.94064e-05
0
0
0
0
0.0190367
3.34984e-05
0
0.00353121
1.7941e-05
0
0
0.00208029
3.75401e-06
0
6.1447e-06
0
1.82028e-10
7.80015e-10
0.0239142
0.000167837
0
1.39565e-09
0.0151671
0
0.00203287
0
0.00370558
0
0
0
0
0
0
0
0
0
0
0
1.55527e-06
0
6.38758e-08
0.000869349
0
0.000526993
0.00290596
0
0.00891076
0
0.00100366
0
1.1003e-06
0
4.10907e-08
0.000354304
0
2.30068e-05
0
2.91329e-05
0
0
0
0
1.10414e-10
0
0
0
0
0
0
0
0
2.06555e-09
0.00464554
0
0
0.015247
0.00795928
0.0261553
0.0761758
0.0395516
0.000372706
5.55321e-06
3.08112e-06
3.25787e-07
7.21457e-07
6.85848e-06
0.0062158
0.0106095
0.00195736
0.00132715
5.70774e-08
1.39534e-07
1.3073e-06
5.27967e-07
0.00829619
0.00866607
0.020922
0.0198627
0.0413809
0.0140492
0.00493524
0.0165798
0.0853774
0.0365373
0.0941875
0.192136
0.00334604
0.00322347
0.00118428
0.000723444
0.00797236
0.0228983
0.00284804
0.00262976
3.12305e-09
0.00260479
8.8958e-05
0.00190106
4.06466e-05
0.0148875
5.19672e-05
0.000692001
0.00246712
0.00072377
0.057997
0.123973
0.0312003
0.0102253
9.67675e-06
0.00163343
0.0178878
0.000246414
0.0844979
0.00086891
1.05845e-06
0.0937819
0.00175435
1.07643e-05
2.67288e-05
1.5269e-08
0.0891614
0.000317607
3.13787e-07
0.00242524
0.000252759
3.13261e-08
0.164338
0.000807564
0.00192568
0.210323
0.000400334
0.000172422
7.07461e-09
0.043947
0.000118362
0.00881525
2.38306e-05
0.00587436
1.56664e-07
0.000938166
0.000328033
0.000174038
2.58905e-05
0.0049456
0.000141158
0.116142
0.0844907
4.24867e-06
6.97255e-05
0.0405855
1.08586e-06
0.182526
0.0696524
0.300697
0.0158869
0.000124371
6.09368e-08
0.00223646
0.0344047
0.174919
8.97554e-07
0.000654215
0.306208
0.272068
0.0716851
0.0179891
0.00172644
0.0504359
0.342631
6.83146e-07
0.00024897
0.180706
1.20359e-06
0.0125006
5.86055e-05
1.20093e-06
0.215232
0.125986
0.281835
0.00562588
0.301811
0.00116508
0.27862
0.00740548
0.00120825
0.0567236
0.0962856
0.00284743
0.000772247
0.0516601
0.0467966
0.0018616
0.193361
0.000277367
0.0272769
3.32948e-08
0.0159362
0.00376747
1.57473e-05
0.000339365
0.0571831
7.41062e-08
0.273123
0.034846
0.000343824
0.00250641
0.000375601
0.110148
0.00270154
0.514187
0.0120386
0.000206604
0.108125
0.000438942
0.161067
1.77093e-06
0.00122197
0.00327669
0.0894811
0.00103614
0.000453688
0.017601
0.090982
0.00671855
1.42407e-08
0.219507
5.83542e-09
0.204677
0.0706521
0.00471931
0.306348
0.0029308
0.43257
1.94274e-07
2.77047e-06
0.364794
3.16285e-07
0.550809
0.432901
0.0110872
1.12074e-07
0.613538
0.462649
0.594646
0.00682084
0.354868
0.0617265
1.31631e-09
0.50862
0.0237789
0.398882
0.04674
0.289558
0.134455
5.32833e-10
0.302866
0.163133
0.0785446
0.10218
0.490411
4.81689e-07
0.668117
0.699785
3.33741e-05
0.013266
4.30129e-05
0.0277744
0.00885489
0.00428583
0.0145683
0.711566
0.725028
0.0282844
4.03474e-06
0.049334
5.44286e-06
0.537718
0.023956
0.576365
0.0471792
1.51145e-06
5.20914e-05
0.150775
4.45569e-05
0.215784
7.39516e-06
0.0666663
7.94456e-06
0.0467395
5.41866e-05
0.0944149
7.69012e-06
0.0294705
5.06836e-05
0.0535605
0.610813
0.408534
0.000694903
0.000973387
0.0168787
6.76285e-06
0.218475
0.203643
5.93811e-07
0.520434
0.0837654
2.9873e-06
0.383162
0.132261
1.43739e-05
2.82666e-05
