# vtk DataFile Version 2.0
Unstructured Grid by M++
ASCII
DATASET UNSTRUCTURED_GRID
POINTS 1089 float
  6.250000   0.625000 0
  5.625000   0.625000 0
  1.250000   7.500000 0
  4.375000   3.750000 0
  0.625000   8.125000 0
  5.000000   4.375000 0
  8.750000   4.375000 0
  1.875000   8.125000 0
  4.375000   4.375000 0
  1.250000   8.125000 0
  2.500000   8.750000 0
  9.375000   5.000000 0
  5.000000   3.750000 0
  8.750000   8.125000 0
  8.750000   8.750000 0
  9.375000   4.375000 0
  2.500000   8.125000 0
  9.375000   8.750000 0
 10.000000   8.750000 0
  5.000000   3.125000 0
  1.875000   6.875000 0
  4.375000   6.875000 0
  3.750000   8.125000 0
  4.375000   8.125000 0
  7.500000   4.375000 0
  9.375000   0.625000 0
  4.375000   8.750000 0
  7.500000   5.000000 0
  3.750000   8.750000 0
  1.250000   8.750000 0
  4.375000   5.000000 0
  9.375000   1.250000 0
  3.750000   9.375000 0
  7.500000   5.625000 0
  4.375000   9.375000 0
  7.500000   6.250000 0
  4.375000  10.000000 0
  5.000000   1.875000 0
  5.000000   2.500000 0
  7.500000   6.875000 0
  5.625000   1.250000 0
  6.875000   6.875000 0
  5.625000   1.875000 0
  5.625000   2.500000 0
  6.875000   6.250000 0
  3.750000  10.000000 0
  8.750000   7.500000 0
  6.250000   7.500000 0
  6.250000   8.125000 0
  7.500000  10.000000 0
  1.875000   8.750000 0
  8.750000   5.000000 0
  5.000000   6.875000 0
  8.125000   3.125000 0
  6.250000  10.000000 0
  5.625000  10.000000 0
  8.125000   2.500000 0
  8.750000   1.250000 0
  6.250000   9.375000 0
  6.875000  10.000000 0
  1.875000   7.500000 0
  8.750000   3.750000 0
  7.500000   3.125000 0
  0.625000   6.875000 0
  5.625000   9.375000 0
  8.750000   0.625000 0
  6.250000   8.750000 0
  5.625000   7.500000 0
  8.125000   3.750000 0
  5.000000   7.500000 0
  4.375000   5.625000 0
  8.125000   5.625000 0
  1.250000   9.375000 0
  0.625000   7.500000 0
  7.500000   3.750000 0
  4.375000   7.500000 0
  3.750000   5.625000 0
  0.625000   9.375000 0
  6.875000   8.125000 0
  5.000000   8.750000 0
  8.125000   5.000000 0
  8.750000   6.875000 0
  3.750000   6.875000 0
  5.625000   8.750000 0
  1.250000   5.000000 0
  8.125000   1.250000 0
  9.375000   6.875000 0
  5.000000   9.375000 0
  7.500000   7.500000 0
  5.000000   8.125000 0
  8.125000   4.375000 0
  3.750000   6.250000 0
  0.625000  10.000000 0
 10.000000   8.125000 0
 10.000000   3.750000 0
  3.125000   7.500000 0
  6.875000   8.750000 0
  9.375000   7.500000 0
  5.625000   8.125000 0
  4.375000   6.250000 0
  6.875000   9.375000 0
  0.625000   8.750000 0
  7.500000   9.375000 0
  7.500000   8.750000 0
  7.500000   8.125000 0
  6.875000   7.500000 0
 10.000000   6.875000 0
  9.375000   8.125000 0
  9.375000   3.750000 0
  2.500000   7.500000 0
 10.000000   7.500000 0
  3.750000   7.500000 0
  5.000000  10.000000 0
  6.250000   6.875000 0
  1.250000   4.375000 0
  8.125000   0.625000 0
  7.500000   1.250000 0
  0.625000   5.000000 0
  5.625000   6.875000 0
  8.750000   3.125000 0
  8.750000   2.500000 0
  1.250000   6.875000 0
  3.125000   6.875000 0
 10.000000   3.125000 0
  2.500000   6.875000 0
  9.375000   3.125000 0
  8.125000   1.875000 0
  1.250000   5.625000 0
 10.000000  10.000000 0
  9.375000  10.000000 0
  9.375000   9.375000 0
 10.000000   9.375000 0
  8.750000  10.000000 0
  8.750000   9.375000 0
  8.750000   1.875000 0
  8.125000   6.875000 0
  8.125000   7.500000 0
  1.250000  10.000000 0
  8.125000   6.250000 0
  0.625000   0.625000 0
  9.375000   6.250000 0
  2.500000  10.000000 0
  8.750000   6.250000 0
  1.875000  10.000000 0
  8.750000   5.625000 0
  1.875000   9.375000 0
  9.375000   5.625000 0
  2.500000   9.375000 0
 10.000000   5.625000 0
  3.125000   9.375000 0
 10.000000   6.250000 0
  3.125000  10.000000 0
 10.000000   5.000000 0
  3.125000   8.750000 0
 10.000000   4.375000 0
  3.125000   8.125000 0
  8.125000   9.375000 0
  8.125000  10.000000 0
  8.125000   8.750000 0
  8.125000   8.125000 0
  7.500000   1.875000 0
  0.625000   5.625000 0
  7.500000   2.500000 0
  0.625000   6.250000 0
  9.375000   0.000000 0
  1.875000   1.875000 0
  8.750000  -1.875000 0
  5.000000  -6.250000 0
  4.375000  -6.250000 0
 -5.000000  -9.375000 0
 -5.625000  -6.875000 0
 -8.750000   5.625000 0
  5.625000  -5.000000 0
  5.000000  -2.500000 0
 -6.250000  -9.375000 0
 -6.875000  -6.875000 0
  3.125000   5.625000 0
 10.000000   1.875000 0
 -3.750000   9.375000 0
  3.750000   3.125000 0
 -3.125000   6.875000 0
  4.375000   0.625000 0
 -2.500000   4.375000 0
  6.250000   5.625000 0
 -0.625000   9.375000 0
 -7.500000 -10.000000 0
 -8.125000  -7.500000 0
  6.875000   3.125000 0
  0.000000   6.875000 0
 -6.875000   5.625000 0
 -4.375000  -4.375000 0
 -3.750000  -6.875000 0
 -6.875000   5.000000 0
 -5.000000  -2.500000 0
 -4.375000  -5.000000 0
 -3.750000  -7.500000 0
 -6.250000   5.000000 0
 -6.250000   5.625000 0
  3.125000  -8.125000 0
 -3.750000  -4.375000 0
 -5.625000   3.125000 0
  0.625000   1.250000 0
  7.500000  -2.500000 0
 -6.875000   6.250000 0
 -3.750000  -6.250000 0
 -6.250000   3.750000 0
  1.250000  -2.500000 0
 -5.625000   1.250000 0
 -7.500000   5.625000 0
 -5.000000  -4.375000 0
 -4.375000  -6.875000 0
 -5.625000  -1.875000 0
 -6.875000   3.125000 0
 -6.250000   0.625000 0
 -4.375000   1.875000 0
 -5.000000   4.375000 0
  9.375000  -6.250000 0
 10.000000  -8.750000 0
  6.875000   4.375000 0
  0.000000   8.125000 0
 -7.500000  -8.750000 0
 -6.250000   4.375000 0
 -7.500000   6.875000 0
 -3.750000  -8.125000 0
 -5.625000  -0.625000 0
 -4.375000  -5.625000 0
 -5.000000  -3.125000 0
 -6.875000   4.375000 0
-10.000000   7.500000 0
 -6.250000  -7.500000 0
 -5.625000 -10.000000 0
  4.375000  -3.125000 0
 -5.000000 -10.000000 0
 -5.625000  -7.500000 0
 -9.375000   7.500000 0
  5.000000  -3.125000 0
 -5.625000   5.000000 0
 -5.000000   2.500000 0
  8.750000  -5.625000 0
  1.250000   0.625000 0
  8.125000  -3.125000 0
  9.375000  -8.125000 0
 -5.625000   4.375000 0
  8.750000  -6.250000 0
 -5.625000  -8.125000 0
 -9.375000   6.875000 0
  5.000000  -3.750000 0
 -6.250000  -8.125000 0
-10.000000   6.875000 0
  3.750000  -1.250000 0
  3.750000   4.375000 0
 -3.125000   8.125000 0
  4.375000   1.875000 0
 -2.500000   5.625000 0
 -6.250000  -8.750000 0
  3.750000   3.750000 0
 -3.125000   7.500000 0
  4.375000   1.250000 0
 -2.500000   5.000000 0
  3.125000   6.250000 0
 10.000000   2.500000 0
 -3.750000  10.000000 0
 -5.625000  -8.750000 0
-10.000000   8.750000 0
 -9.375000   6.250000 0
  4.375000  -1.875000 0
  5.000000  -4.375000 0
 -9.375000   5.000000 0
 -2.500000   1.250000 0
 -7.500000  -2.500000 0
 -0.625000  -6.250000 0
 -6.875000  -5.000000 0
  0.000000  -8.750000 0
 -8.125000   0.000000 0
 -1.250000  -3.750000 0
 -8.750000   5.000000 0
 -1.875000   1.250000 0
 -8.125000   2.500000 0
 -1.250000  -1.250000 0
 -6.250000  -5.000000 0
  0.625000  -8.750000 0
  4.375000   3.125000 0
 -2.500000   6.875000 0
  5.000000   0.625000 0
 -1.875000   4.375000 0
 -5.625000  -9.375000 0
 -0.625000  -5.625000 0
 -7.500000  -1.875000 0
  0.000000  -8.125000 0
 -6.875000  -4.375000 0
 -6.250000  -6.875000 0
-10.000000   8.125000 0
 -1.875000  -0.625000 0
 -8.750000   3.125000 0
 -2.500000   1.875000 0
 -9.375000   5.625000 0
  4.375000  -2.500000 0
 -8.125000   5.625000 0
 -6.875000   0.625000 0
 -7.500000   3.125000 0
 -7.500000  -5.625000 0
 -6.875000  -8.125000 0
 -8.125000  -3.125000 0
 -8.750000   4.375000 0
 -1.875000   0.625000 0
 -6.875000  -3.125000 0
  0.000000  -6.875000 0
 -6.250000  -5.625000 0
  0.625000  -9.375000 0
 -9.375000   4.375000 0
 -2.500000   0.625000 0
 -6.875000  -5.625000 0
  0.000000  -9.375000 0
 -8.125000  -0.625000 0
 -1.250000  -4.375000 0
 -8.750000   1.875000 0
 -1.875000  -1.875000 0
 -7.500000  -3.125000 0
 -0.625000  -6.875000 0
 -5.000000  -8.750000 0
 -1.875000   1.875000 0
  5.000000  -1.875000 0
  5.625000  -4.375000 0
 -4.375000 -10.000000 0
 -5.000000  -7.500000 0
 -1.875000   3.125000 0
  5.000000  -0.625000 0
  6.250000  -5.625000 0
  5.625000  -3.125000 0
 -5.000000  -8.125000 0
 -1.875000   2.500000 0
  5.000000  -1.250000 0
  5.625000  -3.750000 0
  3.750000   0.000000 0
 -3.125000   3.750000 0
  2.500000   5.000000 0
 -4.375000   8.750000 0
  3.125000   2.500000 0
 -3.750000   6.250000 0
 -8.750000  -2.500000 0
 -8.125000  -5.000000 0
 -9.375000   0.000000 0
 -7.500000  -7.500000 0
-10.000000   2.500000 0
  0.625000   3.125000 0
  7.500000  -0.625000 0
 -6.250000   6.875000 0
 -3.750000 -10.000000 0
 -4.375000  -7.500000 0
  6.875000  -5.625000 0
 -8.125000   3.125000 0
 -1.250000  -0.625000 0
 -6.250000  -4.375000 0
  0.625000  -8.125000 0
 -3.750000   3.750000 0
  1.875000   5.000000 0
 -5.000000   8.750000 0
  2.500000   2.500000 0
 -4.375000   6.250000 0
 -9.375000  -1.875000 0
-10.000000   0.625000 0
 -5.625000   8.125000 0
 -5.000000   5.625000 0
 -4.375000  -8.125000 0
  6.875000  -6.250000 0
  6.250000  -3.750000 0
  3.750000   0.625000 0
 -3.125000   4.375000 0
  9.375000   1.875000 0
  2.500000   5.625000 0
 -4.375000   9.375000 0
  3.125000   3.125000 0
 -3.750000   6.875000 0
 -8.750000  -1.875000 0
 -6.875000  -9.375000 0
  0.000000  10.000000 0
 -7.500000  -6.875000 0
 -8.125000  -4.375000 0
 -9.375000   0.625000 0
 -7.500000  -6.250000 0
 -8.750000  -1.250000 0
 -8.125000  -3.750000 0
 -6.875000  -8.750000 0
 -9.375000   8.750000 0
  9.375000  -8.750000 0
 -7.500000  -4.375000 0
 -0.625000  -8.125000 0
-10.000000   5.625000 0
 -3.125000   1.875000 0
 -9.375000   3.125000 0
 -2.500000  -0.625000 0
 -8.750000   0.625000 0
 -1.875000  -3.125000 0
 -8.125000  -1.875000 0
 -1.250000  -5.625000 0
 -8.125000  -5.625000 0
 -9.375000  -0.625000 0
 -8.750000  -3.125000 0
-10.000000   1.875000 0
 -5.625000   8.750000 0
 -5.000000   6.250000 0
  1.875000   5.625000 0
 -5.000000   9.375000 0
  3.125000   0.625000 0
 -3.750000   4.375000 0
  2.500000   3.125000 0
 -4.375000   6.875000 0
  1.875000   6.250000 0
 -5.000000  10.000000 0
  2.500000   3.750000 0
 -4.375000   7.500000 0
  3.125000   1.250000 0
[...]
CELL_DATA 1024
SCALARS scalar_value float 1
LOOKUP_TABLE default
0
0
0
0
0
0
0
0
0
0
0
0
0
0
0
0
0
0
0
0
0
0
0
0
0
0
0
0
0
0
0
8.86993e-09
8.63795e-10
2.8952e-10
2.47032e-09
0
0
0
0
0
0
0
0
0
0
0
0
0
0
0
0
0
0
0
0
0
0
0
0
0
0
0
0
0
0
0
0
0
0
0
0
0
0
0
0
0
0
0
0
0
1.23713e-10
0
0
0
0
0
0
0
0
0
0
0
0
0
0
0
0
0
0
0
0
0
0
0
0
0
0
0
1.17459e-10
0
0
0
0
0
0
0
0
0
0
0
0
0
0
0
0
0
0
0
0
0
0
5.84895e-10
0
0
0
0
0
0
0
0
0
0
0
0
0
0
0
0
0
0
0
0
0
0
0
0
0
0
0
0
0
0
0
0
0
0
0
0
0
0
0
0
0
0
0
0
0
0
0
0
0
0
0
2.44593e-08
0
0
0
0
0
0
0
1.76486e-09
0
0
0
0
0
0
0
0
0
0
0
0
0
0
0
0
4.03415e-08
0
0
0
0
0
0
0
0
0
1.60018e-09
0
0
0
0
0
0
0
0
0
0
0
0
0
0
0
0
0
0
0
0
0
0
0
0
0
0
0
0
0
0
0
0
0
0
0
0
0
3.07136e-10
7.90241e-10
4.47204e-09
2.50039e-08
4.08062e-09
0
1.72109e-09
0
0
0
8.10743e-05
4.25918e-05
0.00015017
0.000296061
0
0
0
0.000694213
0.000173406
0.000130877
0.000498301
2.29889e-10
0
0
0
0
1.12833e-05
2.06632e-05
1.32651e-07
6.65393e-07
1.94151e-08
0
0
0
0
1.11132e-08
1.20477e-07
2.03321e-08
0
0
4.74935e-08
0
2.71047e-08
0
0
4.13747e-07
1.44261e-10
0
0
0
0
0
0
0
1.07283e-10
8.60512e-08
0
0
0
0
1.22984e-09
2.39399e-06
1.64148e-07
0
7.638e-10
0
1.43478e-10
3.04806e-07
0
1.77185e-09
0
1.00506e-10
8.96936e-07
1.57544e-05
6.76449e-09
9.17601e-07
3.35811e-07
2.65065e-10
0
3.14999e-07
0
6.90663e-07
4.32154e-09
0
0
0
1.96451e-09
0.000111186
0
0
1.30463e-10
0
0
5.17324e-10
5.30242e-06
7.39052e-10
0
2.47002e-08
6.89287e-08
0
3.46778e-09
2.80806e-06
0
4.00649e-05
7.89376e-10
8.25067e-07
0
7.81872e-08
1.73954e-09
0
0
0
2.4643e-08
0
0
2.85307e-06
0
7.12764e-09
2.25989e-07
1.51575e-06
5.2591e-10
0
0
2.74584e-07
3.07074e-10
2.78454e-07
0
0.00063003
0.000766681
0
4.44875e-10
2.85248e-07
0
0.000180206
2.51802e-07
1.96042e-10
0
2.08358e-05
4.79215e-08
0
1.3073e-09
9.4159e-07
0
0.000137619
0
8.09506e-08
8.6375e-06
1.72694e-10
7.25876e-06
0
1.55457e-06
0
1.7507e-06
0
4.93372e-06
0
9.54912e-07
1.25324e-10
0
3.32086e-09
0
3.81811e-10
7.93786e-06
0
0
0
0
0.000349244
3.11999e-08
7.01586e-05
0
2.91358e-10
0
1.10994e-06
7.88689e-09
0
0
6.59819e-07
0
1.47038e-07
2.36464e-07
0
0
0
0
0
0
3.35525e-07
0
0
1.49064e-07
2.62108e-05
0
0
3.584e-08
6.6538e-05
0
0
7.78332e-08
3.91444e-05
1.80887e-09
2.78872e-05
3.64174e-09
0
1.72145e-08
1.94433e-05
0
0
8.22801e-09
7.85801e-06
0
0
0
0
1.9731e-09
3.35451e-10
0
1.79833e-09
3.18832e-05
3.84013e-06
9.27574e-09
1.32827e-05
6.32638e-09
0
0
0
0
0
6.68119e-10
0
1.26344e-09
5.90099e-07
1.37414e-06
5.32546e-06
2.21553e-06
0
5.88361e-08
0
0
2.09117e-08
0
5.34273e-09
3.01239e-06
0
0
1.46066e-08
9.3072e-06
0
1.11738e-08
8.29207e-08
1.07109e-08
6.13139e-08
3.1968e-06
6.06987e-08
0
0
0
0
9.79866e-06
5.45332e-07
1.10332e-05
0.000129481
0
0
0
0
1.7407e-07
4.35068e-09
3.31217e-10
1.35077e-08
9.64805e-07
0
8.9025e-08
0
2.03947e-09
0
0
0
0
0
0
0
0
0
0
0
0
0
0
0
0
9.89568e-06
0.00011989
5.38908e-06
4.28664e-07
0
0
0
0
6.28788e-08
0
0
0.00286271
0.00262881
2.04556e-06
0
0
0
0
0
0
0
0
0
0
0
0.00168822
0
0
0
1.14548e-07
0
0
5.5345e-08
0
3.46505e-08
0
0
0
4.00724e-05
0
0
0
0
0.000849669
2.14726e-08
0
0
5.77323e-07
0
0
0
5.7718e-05
2.79444e-10
0
0
4.45449e-07
3.34085e-07
0
0
0.0012355
1.27529e-07
0
7.38091e-10
0
0
0
0
0
0
0
6.96644e-09
0.000224657
1.01959e-10
0
7.85346e-07
0
0
4.65287e-09
0
0
0
4.73491e-09
0
0
0
0
0
1.7931e-07
0
0
3.1386e-08
0
1.94549e-09
0
0
0
2.14992e-05
0
0
0
0.000716551
3.23625e-07
0
0.000115644
0
0
1.29823e-06
0
1.34372e-06
0
0
0
3.02747e-06
0
5.30912e-06
0
0
2.71282e-09
7.22655e-10
3.04137e-08
0
0.000246261
0
0
6.8497e-09
0
4.81763e-10
0
2.6815e-08
0
1.11166e-09
0
2.39685e-08
0
1.04109e-09
6.37925e-06
0
1.57544e-06
0
1.15271e-05
5.58259e-05
0
0
0
9.14182e-07
0.000151059
0
0
0
0
0.131076
6.2714e-05
0
0.0264455
4.10631e-05
0
0
0.0142353
5.95751e-06
0
7.81743e-06
0
0
7.7281e-10
0.15021
0.000453549
0
1.79044e-09
0.0732916
0
0.0112124
0
0.0262245
0
0
0
0
0
0
0
0
0
0
0
6.34684e-06
0
1.93144e-07
0.00490936
0
0.00170084
0.0148699
0
0.0568901
0
0.0014455
0
4.38371e-06
0
1.2195e-07
0.00226742
0
0.000119389
0
0.000155984
0
0
0
0
0
0
0
0
0
0
0
0
0
3.34038e-09
0.0130569
0
0
0.000212193
8.17997e-05
0.000491273
0.00306947
0.00099857
0.000466671
6.71221e-07
1.96878e-07
1.28241e-08
3.77993e-08
5.88844e-07
0.0264674
0.0370255
0.00472484
0.00402521
1.25322e-09
4.11098e-09
6.18903e-08
1.843e-08
0.000253815
0.000394958
0.00132677
0.000842809
0.00682245
0.00288646
0.000584674
0.00161589
0.0497872
0.0127841
0.0258734
0.0863161
0.000109446
7.10122e-05
1.87244e-05
0.000280247
0.0033124
0.0164565
0.0021334
3.84514e-05
0
0.00310006
2.36134e-05
0.000126395
3.90526e-06
0.0419271
1.04921e-05
3.27767e-05
0.00472926
9.28315e-05
0.0697532
0.239325
0.0745304
0.0141115
1.53613e-06
9.08116e-06
0.0313201
5.75799e-05
0.143292
0.000204143
9.93921e-08
0.209184
0.000561509
7.44523e-07
1.74295e-06
3.84002e-10
0.00724425
3.20253e-05
1.67592e-08
0.00029618
0.000529242
1.04933e-09
0.0184259
0.000113624
0.000376782
0.0331064
6.86988e-05
2.15177e-05
1.33748e-10
0.0025825
8.518e-06
0.00686969
6.49682e-06
0.00100144
6.31359e-09
8.18645e-05
0.000530809
3.3837e-05
2.44469e-06
0.000460111
4.89776e-05
0.00846218
0.0151283
2.14267e-07
6.30376e-06
0.0052292
3.78949e-07
0.0158179
0.00369685
0.632427
0.0214791
2.15979e-05
2.72288e-09
0.00207275
0.0026394
0.165453
2.33062e-07
2.66591e-06
0.0715445
0.0420009
0.263883
0.00166461
0.0012349
0.00297863
0.245804
1.3198e-07
7.38766e-07
0.0305692
7.57841e-07
0.0128971
7.52255e-06
5.63068e-07
0.0252172
0.00918825
0.784087
0.00328257
0.44681
7.30763e-06
0.0956741
0.0004913
0.000661129
0.00254449
0.0117663
0.000135226
0.000320562
0.00174428
0.00412305
1.78884e-05
0.0932137
0.000161932
0.00493881
7.62277e-10
0.000445337
2.85125e-05
3.27714e-06
0.000255639
0.0143929
2.25223e-09
0.429426
0.00134319
2.13613e-05
0.000585784
0.000364635
0.0384309
0.00409439
0.570629
0.00156417
9.31974e-05
0.0104848
1.99736e-06
0.0399892
2.20919e-07
2.85993e-05
0.00142066
0.258748
3.51191e-05
0.000141784
0.0393775
0.459627
0.000135904
2.45233e-10
0.862418
0
0.597242
0.268492
6.24682e-05
0.203271
2.52044e-05
0.204829
1.55253e-08
4.60069e-07
0.0918564
3.38837e-08
0.217666
0.393591
0.000201838
6.6915e-09
0.271123
0.148901
0.386924
8.02758e-05
0.0659897
0.357316
0
0.147537
0.131295
0.0845534
0.213982
0.0395561
0.624505
0
0.102486
0.0341802
0.0100235
0.00555179
0.262373
6.92671e-08
0.549193
0.422878
1.19257e-05
0.00314778
2.01802e-05
0.00914241
0.0033102
0.00116166
0.000234168
0.633579
0.878931
0.000619452
8.94043e-07
0.00146803
1.61312e-06
0.666303
0.000598747
0.967039
0.00161567
1.05005e-07
5.6119e-05
0.129128
6.34118e-05
0.251335
7.06566e-06
0.0849444
5.67452e-06
0.0443147
4.4162e-05
0.059085
4.09679e-06
0.0206234
3.12999e-05
0.0243637
1.00177
0.89896
4.82629e-06
1.02496e-05
0.00865836
2.68593e-06
0.792713
0.0203576
4.20363e-08
1.17284
0.00392116
2.74194e-07
1.14795
0.00843898
1.65003e-06
4.31549e-06
