# vtk DataFile Version 2.0
Unstructured Grid by M++
ASCII
DATASET UNSTRUCTURED_GRID
POINTS 1089 float
  6.250000   0.625000 0
  5.625000   0.625000 0
  1.250000   7.500000 0
  4.375000   3.750000 0
  0.625000   8.125000 0
  5.000000   4.375000 0
  8.750000   4.375000 0
  1.875000   8.125000 0
  4.375000   4.375000 0
  1.250000   8.125000 0
  2.500000   8.750000 0
  9.375000   5.000000 0
  5.000000   3.750000 0
  8.750000   8.125000 0
  8.750000   8.750000 0
  9.375000   4.375000 0
  2.500000   8.125000 0
  9.375000   8.750000 0
 10.000000   8.750000 0
  5.000000   3.125000 0
  1.875000   6.875000 0
  4.375000   6.875000 0
  3.750000   8.125000 0
  4.375000   8.125000 0
  7.500000   4.375000 0
  9.375000   0.625000 0
  4.375000   8.750000 0
  7.500000   5.000000 0
  3.750000   8.750000 0
  1.250000   8.750000 0
  4.375000   5.000000 0
  9.375000   1.250000 0
  3.750000   9.375000 0
  7.500000   5.625000 0
  4.375000   9.375000 0
  7.500000   6.250000 0
  4.375000  10.000000 0
  5.000000   1.875000 0
  5.000000   2.500000 0
  7.500000   6.875000 0
  5.625000   1.250000 0
  6.875000   6.875000 0
  5.625000   1.875000 0
  5.625000   2.500000 0
  6.875000   6.250000 0
  3.750000  10.000000 0
  8.750000   7.500000 0
  6.250000   7.500000 0
  6.250000   8.125000 0
  7.500000  10.000000 0
  1.875000   8.750000 0
  8.750000   5.000000 0
  5.000000   6.875000 0
  8.125000   3.125000 0
  6.250000  10.000000 0
  5.625000  10.000000 0
  8.125000   2.500000 0
  8.750000   1.250000 0
  6.250000   9.375000 0
  6.875000  10.000000 0
  1.875000   7.500000 0
  8.750000   3.750000 0
  7.500000   3.125000 0
  0.625000   6.875000 0
  5.625000   9.375000 0
  8.750000   0.625000 0
  6.250000   8.750000 0
  5.625000   7.500000 0
  8.125000   3.750000 0
  5.000000   7.500000 0
  4.375000   5.625000 0
  8.125000   5.625000 0
  1.250000   9.375000 0
  0.625000   7.500000 0
  7.500000   3.750000 0
  4.375000   7.500000 0
  3.750000   5.625000 0
  0.625000   9.375000 0
  6.875000   8.125000 0
  5.000000   8.750000 0
  8.125000   5.000000 0
  8.750000   6.875000 0
  3.750000   6.875000 0
  5.625000   8.750000 0
  1.250000   5.000000 0
  8.125000   1.250000 0
  9.375000   6.875000 0
  5.000000   9.375000 0
  7.500000   7.500000 0
  5.000000   8.125000 0
  8.125000   4.375000 0
  3.750000   6.250000 0
  0.625000  10.000000 0
 10.000000   8.125000 0
 10.000000   3.750000 0
  3.125000   7.500000 0
  6.875000   8.750000 0
  9.375000   7.500000 0
  5.625000   8.125000 0
  4.375000   6.250000 0
  6.875000   9.375000 0
  0.625000   8.750000 0
  7.500000   9.375000 0
  7.500000   8.750000 0
  7.500000   8.125000 0
  6.875000   7.500000 0
 10.000000   6.875000 0
  9.375000   8.125000 0
  9.375000   3.750000 0
  2.500000   7.500000 0
 10.000000   7.500000 0
  3.750000   7.500000 0
  5.000000  10.000000 0
  6.250000   6.875000 0
  1.250000   4.375000 0
  8.125000   0.625000 0
  7.500000   1.250000 0
  0.625000   5.000000 0
  5.625000   6.875000 0
  8.750000   3.125000 0
  8.750000   2.500000 0
  1.250000   6.875000 0
  3.125000   6.875000 0
 10.000000   3.125000 0
  2.500000   6.875000 0
  9.375000   3.125000 0
  8.125000   1.875000 0
  1.250000   5.625000 0
 10.000000  10.000000 0
  9.375000  10.000000 0
  9.375000   9.375000 0
 10.000000   9.375000 0
  8.750000  10.000000 0
  8.750000   9.375000 0
  8.750000   1.875000 0
  8.125000   6.875000 0
  8.125000   7.500000 0
  1.250000  10.000000 0
  8.125000   6.250000 0
  0.625000   0.625000 0
  9.375000   6.250000 0
  2.500000  10.000000 0
  8.750000   6.250000 0
  1.875000  10.000000 0
  8.750000   5.625000 0
  1.875000   9.375000 0
  9.375000   5.625000 0
  2.500000   9.375000 0
 10.000000   5.625000 0
  3.125000   9.375000 0
 10.000000   6.250000 0
  3.125000  10.000000 0
 10.000000   5.000000 0
  3.125000   8.750000 0
 10.000000   4.375000 0
  3.125000   8.125000 0
  8.125000   9.375000 0
  8.125000  10.000000 0
  8.125000   8.750000 0
  8.125000   8.125000 0
  7.500000   1.875000 0
  0.625000   5.625000 0
  7.500000   2.500000 0
  0.625000   6.250000 0
  9.375000   0.000000 0
  1.875000   1.875000 0
  8.750000  -1.875000 0
  5.000000  -6.250000 0
  4.375000  -6.250000 0
 -5.000000  -9.375000 0
 -5.625000  -6.875000 0
 -8.750000   5.625000 0
  5.625000  -5.000000 0
  5.000000  -2.500000 0
 -6.250000  -9.375000 0
 -6.875000  -6.875000 0
  3.125000   5.625000 0
 10.000000   1.875000 0
 -3.750000   9.375000 0
  3.750000   3.125000 0
 -3.125000   6.875000 0
  4.375000   0.625000 0
 -2.500000   4.375000 0
  6.250000   5.625000 0
 -0.625000   9.375000 0
 -7.500000 -10.000000 0
 -8.125000  -7.500000 0
  6.875000   3.125000 0
  0.000000   6.875000 0
 -6.875000   5.625000 0
 -4.375000  -4.375000 0
 -3.750000  -6.875000 0
 -6.875000   5.000000 0
 -5.000000  -2.500000 0
 -4.375000  -5.000000 0
 -3.750000  -7.500000 0
 -6.250000   5.000000 0
 -6.250000   5.625000 0
  3.125000  -8.125000 0
 -3.750000  -4.375000 0
 -5.625000   3.125000 0
  0.625000   1.250000 0
  7.500000  -2.500000 0
 -6.875000   6.250000 0
 -3.750000  -6.250000 0
 -6.250000   3.750000 0
  1.250000  -2.500000 0
 -5.625000   1.250000 0
 -7.500000   5.625000 0
 -5.000000  -4.375000 0
 -4.375000  -6.875000 0
 -5.625000  -1.875000 0
 -6.875000   3.125000 0
 -6.250000   0.625000 0
 -4.375000   1.875000 0
 -5.000000   4.375000 0
  9.375000  -6.250000 0
 10.000000  -8.750000 0
  6.875000   4.375000 0
  0.000000   8.125000 0
 -7.500000  -8.750000 0
 -6.250000   4.375000 0
 -7.500000   6.875000 0
 -3.750000  -8.125000 0
 -5.625000  -0.625000 0
 -4.375000  -5.625000 0
 -5.000000  -3.125000 0
 -6.875000   4.375000 0
-10.000000   7.500000 0
 -6.250000  -7.500000 0
 -5.625000 -10.000000 0
  4.375000  -3.125000 0
 -5.000000 -10.000000 0
 -5.625000  -7.500000 0
 -9.375000   7.500000 0
  5.000000  -3.125000 0
 -5.625000   5.000000 0
 -5.000000   2.500000 0
  8.750000  -5.625000 0
  1.250000   0.625000 0
  8.125000  -3.125000 0
  9.375000  -8.125000 0
 -5.625000   4.375000 0
  8.750000  -6.250000 0
 -5.625000  -8.125000 0
 -9.375000   6.875000 0
  5.000000  -3.750000 0
 -6.250000  -8.125000 0
-10.000000   6.875000 0
  3.750000  -1.250000 0
  3.750000   4.375000 0
 -3.125000   8.125000 0
  4.375000   1.875000 0
 -2.500000   5.625000 0
 -6.250000  -8.750000 0
  3.750000   3.750000 0
 -3.125000   7.500000 0
  4.375000   1.250000 0
 -2.500000   5.000000 0
  3.125000   6.250000 0
 10.000000   2.500000 0
 -3.750000  10.000000 0
 -5.625000  -8.750000 0
-10.000000   8.750000 0
 -9.375000   6.250000 0
  4.375000  -1.875000 0
  5.000000  -4.375000 0
 -9.375000   5.000000 0
 -2.500000   1.250000 0
 -7.500000  -2.500000 0
 -0.625000  -6.250000 0
 -6.875000  -5.000000 0
  0.000000  -8.750000 0
 -8.125000   0.000000 0
 -1.250000  -3.750000 0
 -8.750000   5.000000 0
 -1.875000   1.250000 0
 -8.125000   2.500000 0
 -1.250000  -1.250000 0
 -6.250000  -5.000000 0
  0.625000  -8.750000 0
  4.375000   3.125000 0
 -2.500000   6.875000 0
  5.000000   0.625000 0
 -1.875000   4.375000 0
 -5.625000  -9.375000 0
 -0.625000  -5.625000 0
 -7.500000  -1.875000 0
  0.000000  -8.125000 0
 -6.875000  -4.375000 0
 -6.250000  -6.875000 0
-10.000000   8.125000 0
 -1.875000  -0.625000 0
 -8.750000   3.125000 0
 -2.500000   1.875000 0
 -9.375000   5.625000 0
  4.375000  -2.500000 0
 -8.125000   5.625000 0
 -6.875000   0.625000 0
 -7.500000   3.125000 0
 -7.500000  -5.625000 0
 -6.875000  -8.125000 0
 -8.125000  -3.125000 0
 -8.750000   4.375000 0
 -1.875000   0.625000 0
 -6.875000  -3.125000 0
  0.000000  -6.875000 0
 -6.250000  -5.625000 0
  0.625000  -9.375000 0
 -9.375000   4.375000 0
 -2.500000   0.625000 0
 -6.875000  -5.625000 0
  0.000000  -9.375000 0
 -8.125000  -0.625000 0
 -1.250000  -4.375000 0
 -8.750000   1.875000 0
 -1.875000  -1.875000 0
 -7.500000  -3.125000 0
 -0.625000  -6.875000 0
 -5.000000  -8.750000 0
 -1.875000   1.875000 0
  5.000000  -1.875000 0
  5.625000  -4.375000 0
 -4.375000 -10.000000 0
 -5.000000  -7.500000 0
 -1.875000   3.125000 0
  5.000000  -0.625000 0
  6.250000  -5.625000 0
  5.625000  -3.125000 0
 -5.000000  -8.125000 0
 -1.875000   2.500000 0
  5.000000  -1.250000 0
  5.625000  -3.750000 0
  3.750000   0.000000 0
 -3.125000   3.750000 0
  2.500000   5.000000 0
 -4.375000   8.750000 0
  3.125000   2.500000 0
 -3.750000   6.250000 0
 -8.750000  -2.500000 0
 -8.125000  -5.000000 0
 -9.375000   0.000000 0
 -7.500000  -7.500000 0
-10.000000   2.500000 0
  0.625000   3.125000 0
  7.500000  -0.625000 0
 -6.250000   6.875000 0
 -3.750000 -10.000000 0
 -4.375000  -7.500000 0
  6.875000  -5.625000 0
 -8.125000   3.125000 0
 -1.250000  -0.625000 0
 -6.250000  -4.375000 0
  0.625000  -8.125000 0
 -3.750000   3.750000 0
  1.875000   5.000000 0
 -5.000000   8.750000 0
  2.500000   2.500000 0
 -4.375000   6.250000 0
 -9.375000  -1.875000 0
-10.000000   0.625000 0
 -5.625000   8.125000 0
 -5.000000   5.625000 0
 -4.375000  -8.125000 0
  6.875000  -6.250000 0
  6.250000  -3.750000 0
  3.750000   0.625000 0
 -3.125000   4.375000 0
  9.375000   1.875000 0
  2.500000   5.625000 0
 -4.375000   9.375000 0
  3.125000   3.125000 0
 -3.750000   6.875000 0
 -8.750000  -1.875000 0
 -6.875000  -9.375000 0
  0.000000  10.000000 0
 -7.500000  -6.875000 0
 -8.125000  -4.375000 0
 -9.375000   0.625000 0
 -7.500000  -6.250000 0
 -8.750000  -1.250000 0
 -8.125000  -3.750000 0
 -6.875000  -8.750000 0
 -9.375000   8.750000 0
  9.375000  -8.750000 0
 -7.500000  -4.375000 0
 -0.625000  -8.125000 0
-10.000000   5.625000 0
 -3.125000   1.875000 0
 -9.375000   3.125000 0
 -2.500000  -0.625000 0
 -8.750000   0.625000 0
 -1.875000  -3.125000 0
 -8.125000  -1.875000 0
 -1.250000  -5.625000 0
 -8.125000  -5.625000 0
 -9.375000  -0.625000 0
 -8.750000  -3.125000 0
-10.000000   1.875000 0
 -5.625000   8.750000 0
 -5.000000   6.250000 0
  1.875000   5.625000 0
 -5.000000   9.375000 0
  3.125000   0.625000 0
 -3.750000   4.375000 0
  2.500000   3.125000 0
 -4.375000   6.875000 0
  1.875000   6.250000 0
 -5.000000  10.000000 0
  2.500000   3.750000 0
 -4.375000   7.500000 0
  3.125000   1.250000 0
[...]
CELL_DATA 1024
SCALARS scalar_value float 1
LOOKUP_TABLE default
0.000107684
7.16739e-05
2.06433e-05
3.30702e-05
4.6811e-08
1.12398e-07
1.87741e-08
1.84504e-08
7.2628e-09
1.26141e-06
2.29804e-10
4.20055e-07
0
1.14491e-10
3.11605e-06
1.2268e-06
7.32861e-07
1.81026e-06
4.78918e-07
2.87364e-07
2.46302e-06
4.6749e-07
1.21732e-06
1.72823e-07
1.13084e-09
1.09356e-07
3.25281e-10
1.83793e-10
2.60263e-10
9.24571e-10
6.63189e-10
0.000818027
0.000245496
0.000338615
0.00101563
0
0
0
0
9.94863e-06
1.80459e-05
0
8.43203e-07
0.000273386
0
2.41701e-07
0.0001193
2.64799e-06
2.53933e-07
2.60318e-10
5.03316e-06
5.41658e-09
7.5496e-06
1.93877e-10
0
8.43914e-09
1.16609e-10
2.37549e-09
0
5.90419e-10
1.74231e-10
1.27221e-05
2.97021e-08
3.43497e-10
1.31425e-07
9.81118e-10
1.31613e-10
1.43317e-06
1.12408e-10
0
2.3591e-10
3.93736e-10
4.36952e-07
2.71411e-09
0
0
0
0
1.35613e-07
5.74399e-07
0.000854977
0
4.58451e-07
0
1.13127e-08
1.29947e-05
1.92082e-06
2.68584e-09
3.88244e-09
0.000364845
4.52555e-06
3.25227e-09
4.00062e-06
3.65003e-05
1.92156e-09
4.17847e-05
4.16453e-10
9.91868e-07
9.38961e-06
0.000435604
0
0.000120003
3.11338e-06
0.000640723
0
0
3.88473e-08
4.10257e-05
3.35706e-05
2.31907e-06
1.50639e-09
2.78248e-06
2.59422e-07
3.82326e-08
5.3453e-06
7.09135e-07
8.12048e-10
1.9747e-05
1.93523e-08
9.76776e-10
1.07268e-08
2.82168e-05
1.20375e-06
0.000160415
1.3142e-08
1.39847e-05
0.000125034
6.86596e-08
4.96162e-05
1.68489e-06
0
0.00100953
0.000329048
0
5.90825e-06
1.03835e-05
4.32168e-06
8.31652e-10
3.67798e-06
0
0.000183687
0
3.55526e-07
7.20631e-05
9.90087e-06
1.03416e-07
3.09255e-05
2.9096e-06
0.000259304
0
9.41448e-07
2.67502e-06
4.07963e-09
4.12985e-07
1.1781e-10
7.36503e-05
0
7.67844e-07
1.222e-09
1.66135e-07
9.94976e-07
1.33951e-08
0
9.95745e-05
2.83386e-07
2.99446e-09
1.03764e-05
4.35835e-06
1.28421e-05
2.50091e-08
8.45884e-08
2.20566e-07
3.60617e-10
6.48771e-08
6.31766e-08
2.35887e-05
1.14281e-05
3.19764e-10
3.43012e-07
5.57606e-06
0
1.13163e-05
1.06788e-10
0.000470637
0
1.39929e-08
0
5.25972e-09
1.80115e-08
0
5.21895e-06
0.000123718
0
2.62018e-06
1.15403e-07
1.26423e-06
8.8416e-08
7.32312e-09
5.10693e-09
3.27575e-09
2.12448e-09
5.12514e-09
3.787e-08
1.18795e-06
4.68055e-05
2.20301e-05
2.46287e-08
1.05002e-10
0.000153393
4.09232e-05
4.04627e-08
0
1.4233e-06
8.88526e-05
2.17495e-08
6.21162e-08
9.09992e-09
0
3.65858e-05
1.45812e-08
0
3.00024e-08
5.82148e-07
1.14977e-09
6.82634e-10
3.44392e-10
7.15465e-09
1.75931e-09
6.10919e-10
2.48295e-09
7.43246e-09
2.20756e-07
3.81892e-09
2.58704e-07
9.94283e-09
3.22422e-09
1.11016e-07
1.4396e-09
4.60291e-08
4.03436e-10
1.21496e-08
5.20539e-07
0
1.36249e-07
0
4.31695e-08
0
4.37757e-08
0
1.43162e-07
9.07196e-08
1.17831e-09
1.02482e-09
3.57472e-10
3.61617e-08
7.64165e-06
0.00649923
0.00208771
0.0047531
0.00633074
0.00262
7.69974e-05
0.012298
3.48538e-05
9.26363e-06
2.13781e-05
0.276969
0.229591
0.276103
0.33478
7.96037e-05
0.000171251
0.000299708
0.322716
0.264735
0.292559
0.355431
0.00584234
3.86689e-06
1.5164e-05
6.3778e-06
1.56334e-06
0.177177
0.212186
0.00751255
0.0077139
0.00286196
0.000154708
0.000135552
5.91397e-05
6.76081e-05
0.0118937
0.014058
0.00996069
5.63121e-05
4.25751e-05
0.0281148
0.000700551
0.0194431
0.00120525
0.000613006
0.0280352
0.00472628
4.74505e-05
0.000331451
0.000127462
0.000163223
1.53705e-05
9.51529e-05
2.80342e-05
0.00210476
0.0161436
0.000818558
0.00327466
0.0029088
0.00345316
0.0109344
0.0386621
0.0317809
0.00159906
0.00324826
0.00141529
0.00149244
0.00180232
7.91724e-05
0.00561762
0.000353717
0.00329343
0.0241804
0.00476215
0.00846007
0.000841703
0.0597972
0.00396909
0.000333855
0.0664326
0.00181777
0.0180903
0.0112766
0.000599267
0.00246115
0.00330955
0.00357377
0.0211479
0.00300655
4.72791e-05
0.00133356
0.000921125
0.000108272
0.00224469
0.0709348
0.00873511
3.55723e-05
0.0120354
0.0188817
1.47549e-05
0.0118491
0.127778
0.000403407
0.201228
0.00714611
0.0543859
0.000326875
0.0229588
0.0070567
0.000717541
0.00123582
0.000751839
0.00754707
0.00113069
0.000653309
0.0690824
0.000532882
0.00536162
0.0402952
0.0737549
0.00398308
0.000775146
0.00149356
0.0467847
0.00417396
0.0307764
0.000540032
0.145466
0.242917
3.46991e-05
0.00353071
0.0203819
0.00167236
0.199779
0.0120896
0.00460383
9.6389e-05
0.0217556
0.0389154
2.34951e-05
0.00689403
0.0389018
0.00109311
0.121874
0.00232215
0.00991658
0.142741
0.00412052
0.15822
0.0024098
0.105495
0.00132865
0.0950781
0.00227552
0.151679
0.00119256
0.049001
0.00205263
0.000756204
0.00651841
0.00162795
0.00630525
0.109653
7.03448e-05
0.000160407
0.000150601
6.63236e-05
0.0657193
0.0338335
0.0583587
6.38787e-05
0.00577578
0.000643573
0.101845
0.0160771
0.000449849
0.000206531
0.0866506
0.000101123
0.0555533
0.0646059
0.000346978
0.000304945
0.000977061
0.000666883
0.000594483
2.25098e-05
0.0658022
0.00121369
4.20622e-05
0.0451211
0.135054
0.000677651
1.91871e-05
0.0296382
0.203041
0.000339874
1.03881e-05
0.0426975
0.153062
0.0110453
0.0961042
0.0155009
4.74397e-06
0.0263361
0.169588
0.000184127
8.64056e-06
0.0185198
0.113208
0.000359867
0.000387354
0.000243634
0.000177675
0.012357
0.00647988
0.000140992
0.0110489
0.222796
0.0209505
0.022357
0.0492988
0.0196566
0.000257515
0.000118878
0.000157544
0.000182823
0.000280954
0.00623018
0.000211928
0.00878455
0.065094
0.0959761
0.131832
0.0885979
7.33939e-05
0.0282173
0.000357866
0.00229297
0.0162004
5.3264e-05
0.0108408
0.0461912
0.00212821
3.31467e-05
0.0187445
0.0821884
0.00125267
0.0226401
0.00259512
0.0202986
0.0356861
0.00661437
0.0397139
4.7157e-05
8.92726e-05
0
0
9.46712e-06
5.1065e-06
8.00189e-05
0.000132112
0
0
0
0
9.0361e-09
5.24047e-10
7.23576e-10
4.5685e-09
4.975e-05
2.46748e-10
4.45471e-05
0
8.51915e-06
0
0
0
0
3.0955e-10
0
8.6217e-10
0
0
0
0
0
0
0
0
0
1.25977e-06
2.7427e-06
1.71423e-07
7.21314e-08
0
0
9.95791e-10
0
3.63554e-09
0
0
1.37198e-05
5.4656e-06
4.8085e-08
0
0
0
0
0
0
0
0
0
0
0
3.74778e-06
0
2.72328e-09
0
1.55362e-09
0
9.65905e-10
1.07934e-09
0
8.93857e-10
2.98363e-10
8.13741e-10
0
3.35518e-07
0
0
2.30565e-09
0
4.84554e-06
6.49356e-10
0
0
5.62503e-07
0
0
0
2.53276e-07
0
0
2.84645e-08
7.52419e-09
1.03173e-08
0
9.48034e-09
4.57891e-06
3.57474e-09
0
6.614e-09
0
2.61564e-06
0
2.88472e-07
0
9.27147e-08
0
3.45192e-10
9.70902e-07
0
0
4.1861e-08
0
0
0
0
2.91369e-08
0
0
0
2.29439e-07
0
0
0
1.88773e-09
0
0
1.52811e-09
0
1.64781e-10
0
0
0
1.37815e-07
0
0
0
2.07595e-06
1.50786e-08
0
3.92017e-07
0
0
1.401e-08
0
1.8711e-08
3.06352e-09
8.98216e-09
0
2.25911e-08
0
3.06945e-08
0
0
0
0
3.86745e-06
0
1.59553e-06
0
0
6.03666e-10
0
0
0
3.58937e-07
0
6.85838e-07
0
3.80986e-08
0
6.40306e-08
6.50555e-08
0
2.72546e-08
0
1.44565e-07
3.96176e-07
0
8.23222e-08
0
7.9466e-08
1.861e-05
0
0
0
0
0.000243227
1.14808e-06
0
4.41811e-05
5.05287e-07
0
0
2.52051e-05
1.48244e-07
0
3.03791e-07
0
8.75232e-07
0
0.000394842
4.10784e-06
0
0
0.000437411
0
5.39798e-05
0
5.83534e-05
0
1.06653e-10
3.27711e-10
0
1.04975e-10
0
0
0
0
0
0
3.39203e-08
0
1.87509e-09
1.16326e-05
0
3.49321e-05
4.17917e-05
0
0.000111466
2.40049e-10
0.000216978
0
2.91816e-08
0
1.46818e-09
6.07737e-06
0
4.74849e-07
0
4.91462e-07
0
0
8.25691e-09
0
2.23194e-08
0
0
0
0
0
0
0
0
0
0.000337116
2.92706e-09
0
0.224686
0.149512
0.305735
0.376978
0.37146
1.98984e-05
3.81347e-06
4.41519e-06
7.91997e-07
1.2751e-06
7.14711e-06
0.00010547
0.000220201
5.54998e-05
2.98114e-05
2.64237e-07
4.6755e-07
2.58654e-06
1.44844e-06
0.0291695
0.0184548
0.0323935
0.0512935
0.08338
0.027436
0.0228299
0.0743023
0.0331029
0.0312182
0.0877245
0.0853766
0.00984302
0.0155047
0.00784009
0.000960615
0.00720385
0.00865604
0.00136198
0.0212117
1.72248e-08
0.000159713
2.69936e-05
0.00240458
0.000459581
0.000387179
2.13395e-05
0.0012354
8.95884e-05
0.0042685
0.00964299
0.00964789
0.00226865
0.00183859
4.8645e-06
0.0512929
0.000768064
8.62119e-05
0.00392207
0.000298113
8.61346e-07
0.00329535
0.000437174
1.35541e-05
3.49042e-05
4.52095e-08
0.12607
0.000264624
4.822e-07
0.00162442
7.90504e-06
6.79739e-08
0.173342
0.000476529
0.000808717
0.276904
0.000190255
0.000114151
2.85873e-08
0.0837606
0.00013997
0.000877321
6.44592e-06
0.0027986
3.30813e-07
0.000887304
1.33337e-05
0.000655342
2.34811e-05
0.00445353
3.17712e-05
0.371881
0.0429373
7.46698e-06
6.46525e-05
0.0283864
1.99399e-07
0.376466
0.172802
0.0114536
0.000893618
5.94447e-05
9.69255e-08
0.00018028
0.165115
0.0321623
2.23872e-07
0.0269032
0.138798
0.215396
0.00151394
0.0173919
0.000184244
0.27401
0.0755203
2.31626e-07
0.013575
0.110512
1.20019e-07
0.000930916
3.84819e-05
1.62472e-07
0.351692
0.2363
0.00812988
0.00075463
0.0278074
0.0276143
0.0758061
0.00993815
0.000171861
0.361431
0.0798705
0.00532603
0.000147358
0.395841
0.0529118
0.0256019
0.0339692
3.47152e-05
0.0126051
1.3279e-07
0.0704942
0.0910991
5.80289e-06
3.18406e-05
0.019053
2.15039e-07
0.0139041
0.115094
0.000461421
0.00564395
2.65194e-05
0.0265837
0.000126942
0.0590704
0.00774971
3.46163e-05
0.28652
0.0139196
0.059745
1.04864e-06
0.00499261
0.000596956
0.00241505
0.00271488
0.00011687
0.000583955
0.00173621
0.0400243
7.80865e-08
0.00518803
4.40186e-08
0.00812836
0.00233734
0.0484553
0.0393843
0.0524436
0.0867914
1.66224e-07
1.19377e-06
0.24439
1.98634e-07
0.19367
0.0409695
0.0855158
1.30716e-07
0.15571
0.156367
0.0885221
0.0928094
0.302164
0.000886688
9.90999e-09
0.232039
0.000335776
0.238706
0.000792211
0.317672
0.00235365
5.47746e-09
0.16276
0.177256
0.177366
0.403569
0.134936
2.22191e-07
0.0984382
0.134528
6.63605e-06
0.0045157
6.29865e-06
0.00678761
0.00191417
0.0012877
0.151876
0.0791617
0.0608258
0.227794
1.26547e-06
0.3098
1.24348e-06
0.0377169
0.139702
0.0302066
0.209476
1.94588e-06
3.1126e-06
0.014088
2.0028e-06
0.014823
4.89301e-07
0.00413615
7.10969e-07
0.00391489
4.34267e-06
0.0120827
9.37154e-07
0.00336126
5.48009e-06
0.00944568
0.039115
0.0203233
0.0129071
0.0107052
0.00264133
1.12701e-06
0.00485098
0.29088
6.64068e-07
0.0205877
0.285367
2.80654e-06
0.0115987
0.348778
1.09372e-05
1.57688e-05
