# vtk DataFile Version 2.0
Unstructured Grid by M++
ASCII
DATASET UNSTRUCTURED_GRID
POINTS 1089 float
  6.250000   0.625000 0
  5.625000   0.625000 0
  1.250000   7.500000 0
  4.375000   3.750000 0
  0.625000   8.125000 0
  5.000000   4.375000 0
  8.750000   4.375000 0
  1.875000   8.125000 0
  4.375000   4.375000 0
  1.250000   8.125000 0
  2.500000   8.750000 0
  9.375000   5.000000 0
  5.000000   3.750000 0
  8.750000   8.125000 0
  8.750000   8.750000 0
  9.375000   4.375000 0
  2.500000   8.125000 0
  9.375000   8.750000 0
 10.000000   8.750000 0
  5.000000   3.125000 0
  1.875000   6.875000 0
  4.375000   6.875000 0
  3.750000   8.125000 0
  4.375000   8.125000 0
  7.500000   4.375000 0
  9.375000   0.625000 0
  4.375000   8.750000 0
  7.500000   5.000000 0
  3.750000   8.750000 0
  1.250000   8.750000 0
  4.375000   5.000000 0
  9.375000   1.250000 0
  3.750000   9.375000 0
  7.500000   5.625000 0
  4.375000   9.375000 0
  7.500000   6.250000 0
  4.375000  10.000000 0
  5.000000   1.875000 0
  5.000000   2.500000 0
  7.500000   6.875000 0
  5.625000   1.250000 0
  6.875000   6.875000 0
  5.625000   1.875000 0
  5.625000   2.500000 0
  6.875000   6.250000 0
  3.750000  10.000000 0
  8.750000   7.500000 0
  6.250000   7.500000 0
  6.250000   8.125000 0
  7.500000  10.000000 0
  1.875000   8.750000 0
  8.750000   5.000000 0
  5.000000   6.875000 0
  8.125000   3.125000 0
  6.250000  10.000000 0
  5.625000  10.000000 0
  8.125000   2.500000 0
  8.750000   1.250000 0
  6.250000   9.375000 0
  6.875000  10.000000 0
  1.875000   7.500000 0
  8.750000   3.750000 0
  7.500000   3.125000 0
  0.625000   6.875000 0
  5.625000   9.375000 0
  8.750000   0.625000 0
  6.250000   8.750000 0
  5.625000   7.500000 0
  8.125000   3.750000 0
  5.000000   7.500000 0
  4.375000   5.625000 0
  8.125000   5.625000 0
  1.250000   9.375000 0
  0.625000   7.500000 0
  7.500000   3.750000 0
  4.375000   7.500000 0
  3.750000   5.625000 0
  0.625000   9.375000 0
  6.875000   8.125000 0
  5.000000   8.750000 0
  8.125000   5.000000 0
  8.750000   6.875000 0
  3.750000   6.875000 0
  5.625000   8.750000 0
  1.250000   5.000000 0
  8.125000   1.250000 0
  9.375000   6.875000 0
  5.000000   9.375000 0
  7.500000   7.500000 0
  5.000000   8.125000 0
  8.125000   4.375000 0
  3.750000   6.250000 0
  0.625000  10.000000 0
 10.000000   8.125000 0
 10.000000   3.750000 0
  3.125000   7.500000 0
  6.875000   8.750000 0
  9.375000   7.500000 0
  5.625000   8.125000 0
  4.375000   6.250000 0
  6.875000   9.375000 0
  0.625000   8.750000 0
  7.500000   9.375000 0
  7.500000   8.750000 0
  7.500000   8.125000 0
  6.875000   7.500000 0
 10.000000   6.875000 0
  9.375000   8.125000 0
  9.375000   3.750000 0
  2.500000   7.500000 0
 10.000000   7.500000 0
  3.750000   7.500000 0
  5.000000  10.000000 0
  6.250000   6.875000 0
  1.250000   4.375000 0
  8.125000   0.625000 0
  7.500000   1.250000 0
  0.625000   5.000000 0
  5.625000   6.875000 0
  8.750000   3.125000 0
  8.750000   2.500000 0
  1.250000   6.875000 0
  3.125000   6.875000 0
 10.000000   3.125000 0
  2.500000   6.875000 0
  9.375000   3.125000 0
  8.125000   1.875000 0
  1.250000   5.625000 0
 10.000000  10.000000 0
  9.375000  10.000000 0
  9.375000   9.375000 0
 10.000000   9.375000 0
  8.750000  10.000000 0
  8.750000   9.375000 0
  8.750000   1.875000 0
  8.125000   6.875000 0
  8.125000   7.500000 0
  1.250000  10.000000 0
  8.125000   6.250000 0
  0.625000   0.625000 0
  9.375000   6.250000 0
  2.500000  10.000000 0
  8.750000   6.250000 0
  1.875000  10.000000 0
  8.750000   5.625000 0
  1.875000   9.375000 0
  9.375000   5.625000 0
  2.500000   9.375000 0
 10.000000   5.625000 0
  3.125000   9.375000 0
 10.000000   6.250000 0
  3.125000  10.000000 0
 10.000000   5.000000 0
  3.125000   8.750000 0
 10.000000   4.375000 0
  3.125000   8.125000 0
  8.125000   9.375000 0
  8.125000  10.000000 0
  8.125000   8.750000 0
  8.125000   8.125000 0
  7.500000   1.875000 0
  0.625000   5.625000 0
  7.500000   2.500000 0
  0.625000   6.250000 0
  9.375000   0.000000 0
  1.875000   1.875000 0
  8.750000  -1.875000 0
  5.000000  -6.250000 0
  4.375000  -6.250000 0
 -5.000000  -9.375000 0
 -5.625000  -6.875000 0
 -8.750000   5.625000 0
  5.625000  -5.000000 0
  5.000000  -2.500000 0
 -6.250000  -9.375000 0
 -6.875000  -6.875000 0
  3.125000   5.625000 0
 10.000000   1.875000 0
 -3.750000   9.375000 0
  3.750000   3.125000 0
 -3.125000   6.875000 0
  4.375000   0.625000 0
 -2.500000   4.375000 0
  6.250000   5.625000 0
 -0.625000   9.375000 0
 -7.500000 -10.000000 0
 -8.125000  -7.500000 0
  6.875000   3.125000 0
  0.000000   6.875000 0
 -6.875000   5.625000 0
 -4.375000  -4.375000 0
 -3.750000  -6.875000 0
 -6.875000   5.000000 0
 -5.000000  -2.500000 0
 -4.375000  -5.000000 0
 -3.750000  -7.500000 0
 -6.250000   5.000000 0
 -6.250000   5.625000 0
  3.125000  -8.125000 0
 -3.750000  -4.375000 0
 -5.625000   3.125000 0
  0.625000   1.250000 0
  7.500000  -2.500000 0
 -6.875000   6.250000 0
 -3.750000  -6.250000 0
 -6.250000   3.750000 0
  1.250000  -2.500000 0
 -5.625000   1.250000 0
 -7.500000   5.625000 0
 -5.000000  -4.375000 0
 -4.375000  -6.875000 0
 -5.625000  -1.875000 0
 -6.875000   3.125000 0
 -6.250000   0.625000 0
 -4.375000   1.875000 0
 -5.000000   4.375000 0
  9.375000  -6.250000 0
 10.000000  -8.750000 0
  6.875000   4.375000 0
  0.000000   8.125000 0
 -7.500000  -8.750000 0
 -6.250000   4.375000 0
 -7.500000   6.875000 0
 -3.750000  -8.125000 0
 -5.625000  -0.625000 0
 -4.375000  -5.625000 0
 -5.000000  -3.125000 0
 -6.875000   4.375000 0
-10.000000   7.500000 0
 -6.250000  -7.500000 0
 -5.625000 -10.000000 0
  4.375000  -3.125000 0
 -5.000000 -10.000000 0
 -5.625000  -7.500000 0
 -9.375000   7.500000 0
  5.000000  -3.125000 0
 -5.625000   5.000000 0
 -5.000000   2.500000 0
  8.750000  -5.625000 0
  1.250000   0.625000 0
  8.125000  -3.125000 0
  9.375000  -8.125000 0
 -5.625000   4.375000 0
  8.750000  -6.250000 0
 -5.625000  -8.125000 0
 -9.375000   6.875000 0
  5.000000  -3.750000 0
 -6.250000  -8.125000 0
-10.000000   6.875000 0
  3.750000  -1.250000 0
  3.750000   4.375000 0
 -3.125000   8.125000 0
  4.375000   1.875000 0
 -2.500000   5.625000 0
 -6.250000  -8.750000 0
  3.750000   3.750000 0
 -3.125000   7.500000 0
  4.375000   1.250000 0
 -2.500000   5.000000 0
  3.125000   6.250000 0
 10.000000   2.500000 0
 -3.750000  10.000000 0
 -5.625000  -8.750000 0
-10.000000   8.750000 0
 -9.375000   6.250000 0
  4.375000  -1.875000 0
  5.000000  -4.375000 0
 -9.375000   5.000000 0
 -2.500000   1.250000 0
 -7.500000  -2.500000 0
 -0.625000  -6.250000 0
 -6.875000  -5.000000 0
  0.000000  -8.750000 0
 -8.125000   0.000000 0
 -1.250000  -3.750000 0
 -8.750000   5.000000 0
 -1.875000   1.250000 0
 -8.125000   2.500000 0
 -1.250000  -1.250000 0
 -6.250000  -5.000000 0
  0.625000  -8.750000 0
  4.375000   3.125000 0
 -2.500000   6.875000 0
  5.000000   0.625000 0
 -1.875000   4.375000 0
 -5.625000  -9.375000 0
 -0.625000  -5.625000 0
 -7.500000  -1.875000 0
  0.000000  -8.125000 0
 -6.875000  -4.375000 0
 -6.250000  -6.875000 0
-10.000000   8.125000 0
 -1.875000  -0.625000 0
 -8.750000   3.125000 0
 -2.500000   1.875000 0
 -9.375000   5.625000 0
  4.375000  -2.500000 0
 -8.125000   5.625000 0
 -6.875000   0.625000 0
 -7.500000   3.125000 0
 -7.500000  -5.625000 0
 -6.875000  -8.125000 0
 -8.125000  -3.125000 0
 -8.750000   4.375000 0
 -1.875000   0.625000 0
 -6.875000  -3.125000 0
  0.000000  -6.875000 0
 -6.250000  -5.625000 0
  0.625000  -9.375000 0
 -9.375000   4.375000 0
 -2.500000   0.625000 0
 -6.875000  -5.625000 0
  0.000000  -9.375000 0
 -8.125000  -0.625000 0
 -1.250000  -4.375000 0
 -8.750000   1.875000 0
 -1.875000  -1.875000 0
 -7.500000  -3.125000 0
 -0.625000  -6.875000 0
 -5.000000  -8.750000 0
 -1.875000   1.875000 0
  5.000000  -1.875000 0
  5.625000  -4.375000 0
 -4.375000 -10.000000 0
 -5.000000  -7.500000 0
 -1.875000   3.125000 0
  5.000000  -0.625000 0
  6.250000  -5.625000 0
  5.625000  -3.125000 0
 -5.000000  -8.125000 0
 -1.875000   2.500000 0
  5.000000  -1.250000 0
  5.625000  -3.750000 0
  3.750000   0.000000 0
 -3.125000   3.750000 0
  2.500000   5.000000 0
 -4.375000   8.750000 0
  3.125000   2.500000 0
 -3.750000   6.250000 0
 -8.750000  -2.500000 0
 -8.125000  -5.000000 0
 -9.375000   0.000000 0
 -7.500000  -7.500000 0
-10.000000   2.500000 0
  0.625000   3.125000 0
  7.500000  -0.625000 0
 -6.250000   6.875000 0
 -3.750000 -10.000000 0
 -4.375000  -7.500000 0
  6.875000  -5.625000 0
 -8.125000   3.125000 0
 -1.250000  -0.625000 0
 -6.250000  -4.375000 0
  0.625000  -8.125000 0
 -3.750000   3.750000 0
  1.875000   5.000000 0
 -5.000000   8.750000 0
  2.500000   2.500000 0
 -4.375000   6.250000 0
 -9.375000  -1.875000 0
-10.000000   0.625000 0
 -5.625000   8.125000 0
 -5.000000   5.625000 0
 -4.375000  -8.125000 0
  6.875000  -6.250000 0
  6.250000  -3.750000 0
  3.750000   0.625000 0
 -3.125000   4.375000 0
  9.375000   1.875000 0
  2.500000   5.625000 0
 -4.375000   9.375000 0
  3.125000   3.125000 0
 -3.750000   6.875000 0
 -8.750000  -1.875000 0
 -6.875000  -9.375000 0
  0.000000  10.000000 0
 -7.500000  -6.875000 0
 -8.125000  -4.375000 0
 -9.375000   0.625000 0
 -7.500000  -6.250000 0
 -8.750000  -1.250000 0
 -8.125000  -3.750000 0
 -6.875000  -8.750000 0
 -9.375000   8.750000 0
  9.375000  -8.750000 0
 -7.500000  -4.375000 0
 -0.625000  -8.125000 0
-10.000000   5.625000 0
 -3.125000   1.875000 0
 -9.375000   3.125000 0
 -2.500000  -0.625000 0
 -8.750000   0.625000 0
 -1.875000  -3.125000 0
 -8.125000  -1.875000 0
 -1.250000  -5.625000 0
 -8.125000  -5.625000 0
 -9.375000  -0.625000 0
 -8.750000  -3.125000 0
-10.000000   1.875000 0
 -5.625000   8.750000 0
 -5.000000   6.250000 0
  1.875000   5.625000 0
 -5.000000   9.375000 0
  3.125000   0.625000 0
 -3.750000   4.375000 0
  2.500000   3.125000 0
 -4.375000   6.875000 0
  1.875000   6.250000 0
 -5.000000  10.000000 0
  2.500000   3.750000 0
 -4.375000   7.500000 0
  3.125000   1.250000 0
[...]
CELL_DATA 1024
SCALARS scalar_value float 1
LOOKUP_TABLE default
0.0199843
0.0115488
0.00746931
0.0125872
0.00101622
0.00170161
0.000579662
0.000758539
0.000316551
0.0061714
4.43245e-05
0.00354756
2.25599e-05
3.3183e-05
0.0121385
0.00771914
0.00613923
0.00952585
0.00169887
0.00383384
0.00796378
0.00475857
0.00589386
0.00284912
0.000141604
0.00232251
7.13748e-05
4.57987e-05
5.91562e-05
0.000117546
9.09238e-05
0.0264982
0.0175145
0.0309316
0.0467529
1.43544e-05
2.9264e-05
2.26936e-05
1.11749e-05
0.0207162
0.0270846
1.57882e-06
0.0026808
0.0780321
6.49521e-07
0.00152163
0.0562909
0.00949376
0.00328317
7.39872e-05
0.0145938
0.000244168
0.0164325
6.08276e-05
1.68058e-05
0.000340927
1.89378e-05
0.00017756
8.55201e-06
0.000120665
3.17062e-05
0.0225141
0.000643047
4.04988e-05
0.00153784
8.35208e-05
4.45174e-05
0.00577385
2.81068e-05
2.76248e-05
5.73281e-05
8.9793e-05
0.0027862
0.000165847
2.96852e-05
3.64985e-05
1.75748e-05
1.4096e-05
0.000979156
0.00411134
0.0819257
2.13114e-05
0.00328285
1.44402e-05
0.000440895
0.0111812
0.00914711
0.000230327
0.000275884
0.0450445
0.00852884
0.00022963
0.00662615
0.026584
0.000220714
0.0234122
6.56316e-05
0.00607703
0.00384843
0.0866616
5.86567e-06
0.0369586
0.00176614
0.0885798
1.28377e-05
2.2835e-06
0.000831378
0.0183497
0.00559055
0.0105213
0.000127684
0.0101468
0.00271414
0.0005502
0.012445
0.00555883
0.000145667
0.0257337
0.000458471
0.000119308
0.000302084
0.0273059
0.00382669
0.0654882
0.000527778
0.0143443
0.0292231
0.000844137
0.0388398
0.00286727
3.73446e-06
0.0669634
0.0562015
9.90345e-06
0.00469829
0.002336
0.014298
8.56089e-05
0.0104494
2.53806e-06
0.0616014
1.65076e-05
0.00215774
0.0478531
0.00771912
0.00119005
0.0334842
0.00460847
0.0619159
5.78526e-06
0.00124279
0.00253986
0.000308039
0.00461968
2.84755e-05
0.0418558
8.1777e-06
0.0016082
0.000158885
0.00291163
0.00709054
0.000585547
1.31554e-05
0.0413865
0.000824733
0.000162385
0.017173
0.00989525
0.0164794
0.000316598
0.000521468
0.000980763
8.03411e-05
0.00177537
0.00057851
0.0276569
0.0189179
8.21359e-05
0.00353945
0.0143513
4.07055e-05
0.0208198
4.179e-05
0.0112952
8.73585e-06
0.000728923
4.45956e-06
0.000408948
0.000331312
2.03731e-05
0.0150749
0.00787859
1.97605e-05
0.010482
0.00200929
0.00695113
0.00188821
0.000185666
0.000184826
0.000328734
0.000105659
0.000431661
0.00111376
0.00737814
0.0387305
0.0289034
0.00104698
3.98028e-05
0.00331752
0.0382207
0.00136563
3.5316e-05
0.00493529
0.0517222
0.000940397
0.0016591
0.000596857
1.94464e-05
0.0028423
0.000779431
1.72826e-05
0.00105894
0.00487664
0.000174853
0.000114635
5.94089e-05
0.000426871
0.000231832
5.85631e-05
0.000278765
0.000518962
0.00327358
0.000320038
0.00327405
0.000579598
0.00030969
0.00210221
0.000100712
0.00129092
5.37243e-05
0.000603592
0.00500629
1.12948e-05
0.00198961
5.64266e-06
0.00109084
3.68362e-06
0.000990774
7.29272e-06
0.00182306
0.00206166
0.000166044
0.000161496
8.4261e-05
0.00124979
0.0184614
0.0848158
0.113806
0.150608
0.13053
0.0955075
0.000897756
0.107527
0.000540892
0.000115314
0.000201492
0.116363
0.0873087
0.0670004
0.0875829
0.00154208
0.00246116
0.00526196
0.109152
0.15274
0.140851
0.103612
0.0616777
6.33985e-05
0.000311949
0.000173297
3.36778e-05
0.104742
0.141572
0.0988513
0.0630139
0.0689783
0.0175174
0.0208031
0.0130046
0.0109191
0.221626
0.170454
0.189709
0.00403784
0.00238838
0.240928
0.00543338
0.23991
0.0110162
0.00779819
0.20994
0.0416147
0.000337641
0.00215172
0.00659526
0.0014235
0.000531904
0.0497089
0.00123525
0.00544786
0.00782606
0.0798093
0.0815822
0.0967094
0.0259681
0.0780683
0.176829
0.249626
0.0589282
0.155868
0.0698609
0.120525
0.0182049
0.0239884
0.00761621
0.00374735
0.144804
0.00571538
0.01243
0.00820547
0.00536995
0.239705
0.172471
0.0155495
0.205958
0.0195371
0.136174
0.215157
0.0156945
0.0314331
0.0639772
0.00322037
0.0273789
0.0465864
0.0144652
0.0022134
0.014026
0.0230738
0.0027518
0.211756
0.0526187
0.00092344
0.00828427
0.225325
0.0137388
0.0265226
0.116497
0.00121175
0.193838
0.0230153
0.0267528
0.0705693
0.0161263
0.202091
0.0233678
0.0227032
0.00168211
0.0036131
0.0772262
0.0962426
0.023028
0.0536335
0.00353231
0.0291548
0.252131
0.177781
0.0320911
0.0336965
0.255389
0.0121293
0.0149201
0.0773545
0.0786145
0.100356
0.0150887
0.00663875
0.00691401
0.109964
0.146162
0.00298902
0.1412
0.00395419
0.0553249
0.149321
0.0148144
0.0142086
0.0129701
0.106095
0.121698
0.10674
0.00342577
0.225021
0.0189473
0.19855
0.00979234
0.209354
0.0074883
0.240915
0.0148157
0.158995
0.00421988
0.240239
0.147445
0.0408787
0.191423
0.0462489
0.0329034
0.230006
0.00851979
0.0137185
0.00993506
0.00613604
0.0511925
0.108237
0.0876128
0.00208613
0.128256
0.0030935
0.166036
0.213202
0.00961742
0.00082981
0.120906
0.000541579
0.117777
0.162285
0.0272729
0.0323507
0.115977
0.0484668
0.103032
0.0239699
0.0813997
0.129286
0.0290233
0.0510081
0.0305214
0.106208
0.018903
0.0495412
0.0469866
0.0855133
0.0156808
0.079161
0.192289
0.0396958
0.169251
0.0634374
0.010094
0.0727598
0.0601903
0.0669115
0.0120762
0.0455283
0.038497
0.0824242
0.055554
0.0358351
0.0371875
0.137314
0.108254
0.00338893
0.162433
0.174441
0.0943934
0.129991
0.13266
0.0942577
0.0540319
0.0362697
0.0495117
0.0608226
0.0103918
0.181438
0.00630412
0.178095
0.0495256
0.0787642
0.0713578
0.0451615
0.0333566
0.0299073
0.0213964
0.153769
0.0164026
0.0234556
0.0157189
0.0105706
0.138839
0.0216415
0.0289582
0.0185195
0.125016
0.165933
0.0407971
0.195682
0.22319
0.0320808
0.190249
0.0352544
0.0428939
0
0
2.80778e-05
8.63564e-05
8.80733e-05
3.91654e-05
5.94763e-10
5.84203e-10
2.09227e-10
2.16894e-10
5.33991e-06
4.98291e-06
1.28089e-05
1.44741e-05
0.000235074
1.02235e-05
0.000808701
4.16922e-06
0.00091246
3.19868e-06
1.64275e-08
7.52574e-06
9.90125e-09
1.71719e-05
2.21208e-08
2.43212e-05
3.69703e-08
1.82612e-09
4.31132e-09
7.12873e-09
3.02113e-09
7.65451e-10
2.2219e-09
9.20359e-10
3.01455e-10
1.19902e-05
4.03215e-06
4.98811e-06
1.42999e-05
3.72072e-08
2.53982e-08
3.78555e-05
4.80834e-08
1.247e-10
1.01699e-07
0
3.62372e-08
1.75517e-07
3.67326e-10
3.64468e-07
2.27005e-07
8.16204e-07
2.83857e-06
1.4731e-06
1.17608e-10
4.38544e-07
1.2502e-09
1.55216e-08
6.35558e-09
4.53437e-09
6.43055e-08
9.60455e-06
9.83887e-05
3.69938e-10
3.37406e-08
7.60134e-07
4.99121e-05
1.20241e-08
4.10103e-07
1.89331e-06
2.98352e-05
5.73008e-05
1.15359e-10
1.72535e-06
8.37165e-09
5.82466e-08
3.19939e-05
1.03287e-08
1.38268e-06
4.2587e-09
5.58374e-10
1.08428e-08
3.59888e-05
0
2.66001e-08
2.83955e-06
2.46342e-08
1.63387e-09
1.6281e-09
0.000178808
3.6413e-09
3.57787e-10
2.09305e-07
0.000123311
1.58602e-08
1.26389e-09
8.74458e-08
3.82759e-05
1.05598e-07
0.000888251
2.28779e-06
0.000564109
1.54431e-06
0.000394771
2.0752e-10
1.50078e-09
8.58415e-09
8.21308e-08
1.50707e-10
1.83287e-10
2.86433e-07
5.05066e-10
2.4549e-07
4.85824e-10
0.000260108
1.99149e-10
9.21506e-08
6.83877e-07
0.000295212
1.83813e-10
2.11424e-07
3.92592e-10
9.39515e-08
1.34846e-06
1.13784e-07
4.37918e-10
5.05942e-08
5.26669e-10
2.93353e-10
2.09698e-08
1.54495e-06
8.56595e-09
3.14054e-08
1.13546e-10
5.30598e-06
2.36113e-08
1.25531e-10
1.7424e-07
7.09947e-08
5.06127e-06
3.0157e-10
1.04703e-08
8.20662e-07
1.93382e-06
8.03046e-05
0.00016324
7.52393e-10
3.00355e-08
1.48827e-06
8.58808e-08
2.61652e-06
5.3446e-07
6.43718e-07
1.65652e-06
0.000279298
1.32318e-06
5.44814e-09
1.04406e-08
2.59423e-08
1.52993e-10
5.52167e-08
1.85775e-10
2.33834e-08
0.000107659
4.10511e-07
0.00031571
9.81085e-07
4.03636e-05
2.95436e-07
0.000111152
2.97933e-09
4.19108e-07
1.0343e-09
7.42797e-07
1.07233e-09
3.06607e-09
2.12252e-07
0.000241105
4.52557e-07
2.99446e-10
9.84314e-06
3.39394e-06
1.88674e-09
5.19092e-06
5.20176e-09
8.90086e-07
3.40605e-09
2.12167e-06
2.85961e-07
1.79813e-09
1.2765e-06
1.78456e-05
1.15496e-07
5.74678e-10
6.12638e-07
1.00287e-09
9.93048e-07
0.000745969
4.53808e-09
2.18639e-06
1.12829e-08
4.40425e-06
1.25046e-08
4.79527e-06
1.18454e-08
1.56502e-06
4.41474e-09
6.74353e-07
1.18027e-08
1.14262e-05
2.43239e-05
0
1.49577e-05
4.50969e-09
7.24095e-06
2.58641e-06
8.86298e-06
5.08647e-06
1.01049e-09
2.44411e-07
7.45915e-10
2.59082e-07
4.40029e-08
9.68995e-06
3.77043e-06
1.11898e-07
1.72504e-05
3.27631e-07
3.23965e-05
1.90811e-05
2.55637e-09
6.9085e-07
1.85796e-09
7.05768e-07
4.8656e-07
3.95464e-09
5.9491e-07
3.28949e-09
2.05241e-07
1.27332e-09
1.49488e-09
7.72011e-05
1.3067e-07
9.80295e-05
2.01215e-07
1.4439e-10
1.68032e-07
0
1.24783e-07
0
5.16339e-08
6.74428e-08
3.4135e-08
9.66005e-06
5.58699e-05
8.12411e-08
0.0337384
0.0223905
0.0469931
0.0370766
0.0598594
6.06954e-08
3.64807e-08
6.91302e-08
1.48576e-08
2.01535e-08
9.39115e-08
2.55509e-07
5.3083e-07
1.41722e-07
7.45062e-08
7.00965e-09
1.04258e-08
4.83899e-08
3.24425e-08
0.00102092
0.000458055
0.000713096
0.00161974
0.0147142
0.00666475
0.0129703
0.027778
0.0016551
0.00338229
0.00746664
0.00360027
0.000277317
0.000606225
0.000345087
0.000290658
0.00114697
0.000579429
0.000151654
0.00117548
3.86765e-10
5.27793e-07
1.82329e-07
3.97155e-05
0.00133778
9.76642e-07
1.6914e-07
2.39559e-05
2.43465e-07
0.00455789
0.000283022
0.000131222
3.90804e-05
7.82744e-05
3.95792e-08
0.00805312
2.30881e-06
6.73556e-07
1.31098e-05
2.42338e-06
8.24253e-09
9.85954e-06
3.01787e-06
2.11648e-07
5.72759e-07
7.45129e-10
0.00332377
3.46887e-06
6.33279e-09
1.92538e-05
2.12564e-08
9.62084e-10
0.0042349
5.24751e-06
7.51667e-06
0.0182853
1.83076e-06
1.3066e-06
5.49562e-10
0.00240616
2.19346e-06
3.84637e-06
3.841e-08
2.82118e-05
5.10293e-09
1.24255e-05
3.75275e-08
0.000569873
3.06444e-07
6.29598e-05
1.83876e-07
0.0408283
0.000530013
1.39956e-07
8.84314e-07
0.000396613
9.33358e-10
0.0227144
0.00695853
3.92199e-05
3.01181e-06
5.48545e-07
1.18033e-09
6.72513e-07
0.046093
0.00077247
1.18121e-09
0.00442589
0.0020369
0.0049294
3.84128e-06
0.000276765
7.84497e-07
0.0619631
0.00163512
1.38893e-09
0.00237829
0.00177269
4.64734e-10
3.56097e-06
4.21395e-07
6.83386e-10
0.0218766
0.00902605
2.54505e-05
3.82301e-06
0.000337999
0.00315797
0.000745508
0.0001812
8.42839e-07
0.0701168
0.00141276
0.000111911
8.38718e-07
0.0687958
0.00104026
0.00203381
0.000239206
1.50579e-07
0.000132604
2.83654e-09
0.00326467
0.0138558
4.03097e-08
1.21182e-07
0.000174303
3.90126e-09
5.29166e-05
0.00494387
7.66823e-06
0.00223004
8.964e-08
0.000212708
3.76885e-07
0.000688714
9.42602e-05
1.72767e-07
0.0349289
0.00171647
0.000655883
8.59528e-09
0.000160706
3.51923e-06
6.57588e-06
6.61077e-05
7.77086e-07
1.59066e-06
7.40334e-06
0.00201819
1.96585e-09
2.07716e-05
1.3067e-09
5.57618e-05
1.81181e-05
0.00356041
0.00024577
0.00563703
0.000770922
1.50918e-09
8.4071e-09
0.00888048
1.56414e-09
0.00397565
0.000228377
0.00587629
1.37266e-09
0.00197558
0.00212077
0.000717073
0.00949819
0.0107756
2.63654e-06
2.60226e-10
0.00485116
8.46561e-07
0.00518185
1.94241e-06
0.0113875
6.70449e-06
1.68344e-10
0.00622434
0.0129221
0.0251652
0.0413475
0.00279171
1.52325e-09
0.00115013
0.00162131
3.41244e-08
3.89068e-05
2.8167e-08
5.02398e-05
1.28667e-05
1.01519e-05
0.0150064
0.000591795
0.000426176
0.022068
7.68788e-09
0.029941
6.55131e-09
0.000189626
0.00908376
0.000138659
0.0130555
2.59575e-08
9.88587e-09
6.84282e-05
5.96003e-09
6.34399e-05
1.64692e-09
1.56375e-05
2.59156e-09
1.69046e-05
1.51907e-08
6.71108e-05
3.80737e-09
1.67102e-05
2.15275e-08
6.03869e-05
0.000262348
0.000134568
0.00112084
0.000657986
1.52223e-05
5.18693e-09
1.42129e-05
0.0106804
7.43721e-09
8.77223e-05
0.0172934
3.1664e-08
4.69875e-05
0.0208896
1.20979e-07
1.47352e-07
