# vtk DataFile Version 2.0
Unstructured Grid by M++
ASCII
DATASET UNSTRUCTURED_GRID
POINTS 1089 float
  6.250000   0.625000 0
  5.625000   0.625000 0
  1.250000   7.500000 0
  4.375000   3.750000 0
  0.625000   8.125000 0
  5.000000   4.375000 0
  8.750000   4.375000 0
  1.875000   8.125000 0
  4.375000   4.375000 0
  1.250000   8.125000 0
  2.500000   8.750000 0
  9.375000   5.000000 0
  5.000000   3.750000 0
  8.750000   8.125000 0
  8.750000   8.750000 0
  9.375000   4.375000 0
  2.500000   8.125000 0
  9.375000   8.750000 0
 10.000000   8.750000 0
  5.000000   3.125000 0
  1.875000   6.875000 0
  4.375000   6.875000 0
  3.750000   8.125000 0
  4.375000   8.125000 0
  7.500000   4.375000 0
  9.375000   0.625000 0
  4.375000   8.750000 0
  7.500000   5.000000 0
  3.750000   8.750000 0
  1.250000   8.750000 0
  4.375000   5.000000 0
  9.375000   1.250000 0
  3.750000   9.375000 0
  7.500000   5.625000 0
  4.375000   9.375000 0
  7.500000   6.250000 0
  4.375000  10.000000 0
  5.000000   1.875000 0
  5.000000   2.500000 0
  7.500000   6.875000 0
  5.625000   1.250000 0
  6.875000   6.875000 0
  5.625000   1.875000 0
  5.625000   2.500000 0
  6.875000   6.250000 0
  3.750000  10.000000 0
  8.750000   7.500000 0
  6.250000   7.500000 0
  6.250000   8.125000 0
  7.500000  10.000000 0
  1.875000   8.750000 0
  8.750000   5.000000 0
  5.000000   6.875000 0
  8.125000   3.125000 0
  6.250000  10.000000 0
  5.625000  10.000000 0
  8.125000   2.500000 0
  8.750000   1.250000 0
  6.250000   9.375000 0
  6.875000  10.000000 0
  1.875000   7.500000 0
  8.750000   3.750000 0
  7.500000   3.125000 0
  0.625000   6.875000 0
  5.625000   9.375000 0
  8.750000   0.625000 0
  6.250000   8.750000 0
  5.625000   7.500000 0
  8.125000   3.750000 0
  5.000000   7.500000 0
  4.375000   5.625000 0
  8.125000   5.625000 0
  1.250000   9.375000 0
  0.625000   7.500000 0
  7.500000   3.750000 0
  4.375000   7.500000 0
  3.750000   5.625000 0
  0.625000   9.375000 0
  6.875000   8.125000 0
  5.000000   8.750000 0
  8.125000   5.000000 0
  8.750000   6.875000 0
  3.750000   6.875000 0
  5.625000   8.750000 0
  1.250000   5.000000 0
  8.125000   1.250000 0
  9.375000   6.875000 0
  5.000000   9.375000 0
  7.500000   7.500000 0
  5.000000   8.125000 0
  8.125000   4.375000 0
  3.750000   6.250000 0
  0.625000  10.000000 0
 10.000000   8.125000 0
 10.000000   3.750000 0
  3.125000   7.500000 0
  6.875000   8.750000 0
  9.375000   7.500000 0
  5.625000   8.125000 0
  4.375000   6.250000 0
  6.875000   9.375000 0
  0.625000   8.750000 0
  7.500000   9.375000 0
  7.500000   8.750000 0
  7.500000   8.125000 0
  6.875000   7.500000 0
 10.000000   6.875000 0
  9.375000   8.125000 0
  9.375000   3.750000 0
  2.500000   7.500000 0
 10.000000   7.500000 0
  3.750000   7.500000 0
  5.000000  10.000000 0
  6.250000   6.875000 0
  1.250000   4.375000 0
  8.125000   0.625000 0
  7.500000   1.250000 0
  0.625000   5.000000 0
  5.625000   6.875000 0
  8.750000   3.125000 0
  8.750000   2.500000 0
  1.250000   6.875000 0
  3.125000   6.875000 0
 10.000000   3.125000 0
  2.500000   6.875000 0
  9.375000   3.125000 0
  8.125000   1.875000 0
  1.250000   5.625000 0
 10.000000  10.000000 0
  9.375000  10.000000 0
  9.375000   9.375000 0
 10.000000   9.375000 0
  8.750000  10.000000 0
  8.750000   9.375000 0
  8.750000   1.875000 0
  8.125000   6.875000 0
  8.125000   7.500000 0
  1.250000  10.000000 0
  8.125000   6.250000 0
  0.625000   0.625000 0
  9.375000   6.250000 0
  2.500000  10.000000 0
  8.750000   6.250000 0
  1.875000  10.000000 0
  8.750000   5.625000 0
  1.875000   9.375000 0
  9.375000   5.625000 0
  2.500000   9.375000 0
 10.000000   5.625000 0
  3.125000   9.375000 0
 10.000000   6.250000 0
  3.125000  10.000000 0
 10.000000   5.000000 0
  3.125000   8.750000 0
 10.000000   4.375000 0
  3.125000   8.125000 0
  8.125000   9.375000 0
  8.125000  10.000000 0
  8.125000   8.750000 0
  8.125000   8.125000 0
  7.500000   1.875000 0
  0.625000   5.625000 0
  7.500000   2.500000 0
  0.625000   6.250000 0
  9.375000   0.000000 0
  1.875000   1.875000 0
  8.750000  -1.875000 0
  5.000000  -6.250000 0
  4.375000  -6.250000 0
 -5.000000  -9.375000 0
 -5.625000  -6.875000 0
 -8.750000   5.625000 0
  5.625000  -5.000000 0
  5.000000  -2.500000 0
 -6.250000  -9.375000 0
 -6.875000  -6.875000 0
  3.125000   5.625000 0
 10.000000   1.875000 0
 -3.750000   9.375000 0
  3.750000   3.125000 0
 -3.125000   6.875000 0
  4.375000   0.625000 0
 -2.500000   4.375000 0
  6.250000   5.625000 0
 -0.625000   9.375000 0
 -7.500000 -10.000000 0
 -8.125000  -7.500000 0
  6.875000   3.125000 0
  0.000000   6.875000 0
 -6.875000   5.625000 0
 -4.375000  -4.375000 0
 -3.750000  -6.875000 0
 -6.875000   5.000000 0
 -5.000000  -2.500000 0
 -4.375000  -5.000000 0
 -3.750000  -7.500000 0
 -6.250000   5.000000 0
 -6.250000   5.625000 0
  3.125000  -8.125000 0
 -3.750000  -4.375000 0
 -5.625000   3.125000 0
  0.625000   1.250000 0
  7.500000  -2.500000 0
 -6.875000   6.250000 0
 -3.750000  -6.250000 0
 -6.250000   3.750000 0
  1.250000  -2.500000 0
 -5.625000   1.250000 0
 -7.500000   5.625000 0
 -5.000000  -4.375000 0
 -4.375000  -6.875000 0
 -5.625000  -1.875000 0
 -6.875000   3.125000 0
 -6.250000   0.625000 0
 -4.375000   1.875000 0
 -5.000000   4.375000 0
  9.375000  -6.250000 0
 10.000000  -8.750000 0
  6.875000   4.375000 0
  0.000000   8.125000 0
 -7.500000  -8.750000 0
 -6.250000   4.375000 0
 -7.500000   6.875000 0
 -3.750000  -8.125000 0
 -5.625000  -0.625000 0
 -4.375000  -5.625000 0
 -5.000000  -3.125000 0
 -6.875000   4.375000 0
-10.000000   7.500000 0
 -6.250000  -7.500000 0
 -5.625000 -10.000000 0
  4.375000  -3.125000 0
 -5.000000 -10.000000 0
 -5.625000  -7.500000 0
 -9.375000   7.500000 0
  5.000000  -3.125000 0
 -5.625000   5.000000 0
 -5.000000   2.500000 0
  8.750000  -5.625000 0
  1.250000   0.625000 0
  8.125000  -3.125000 0
  9.375000  -8.125000 0
 -5.625000   4.375000 0
  8.750000  -6.250000 0
 -5.625000  -8.125000 0
 -9.375000   6.875000 0
  5.000000  -3.750000 0
 -6.250000  -8.125000 0
-10.000000   6.875000 0
  3.750000  -1.250000 0
  3.750000   4.375000 0
 -3.125000   8.125000 0
  4.375000   1.875000 0
 -2.500000   5.625000 0
 -6.250000  -8.750000 0
  3.750000   3.750000 0
 -3.125000   7.500000 0
  4.375000   1.250000 0
 -2.500000   5.000000 0
  3.125000   6.250000 0
 10.000000   2.500000 0
 -3.750000  10.000000 0
 -5.625000  -8.750000 0
-10.000000   8.750000 0
 -9.375000   6.250000 0
  4.375000  -1.875000 0
  5.000000  -4.375000 0
 -9.375000   5.000000 0
 -2.500000   1.250000 0
 -7.500000  -2.500000 0
 -0.625000  -6.250000 0
 -6.875000  -5.000000 0
  0.000000  -8.750000 0
 -8.125000   0.000000 0
 -1.250000  -3.750000 0
 -8.750000   5.000000 0
 -1.875000   1.250000 0
 -8.125000   2.500000 0
 -1.250000  -1.250000 0
 -6.250000  -5.000000 0
  0.625000  -8.750000 0
  4.375000   3.125000 0
 -2.500000   6.875000 0
  5.000000   0.625000 0
 -1.875000   4.375000 0
 -5.625000  -9.375000 0
 -0.625000  -5.625000 0
 -7.500000  -1.875000 0
  0.000000  -8.125000 0
 -6.875000  -4.375000 0
 -6.250000  -6.875000 0
-10.000000   8.125000 0
 -1.875000  -0.625000 0
 -8.750000   3.125000 0
 -2.500000   1.875000 0
 -9.375000   5.625000 0
  4.375000  -2.500000 0
 -8.125000   5.625000 0
 -6.875000   0.625000 0
 -7.500000   3.125000 0
 -7.500000  -5.625000 0
 -6.875000  -8.125000 0
 -8.125000  -3.125000 0
 -8.750000   4.375000 0
 -1.875000   0.625000 0
 -6.875000  -3.125000 0
  0.000000  -6.875000 0
 -6.250000  -5.625000 0
  0.625000  -9.375000 0
 -9.375000   4.375000 0
 -2.500000   0.625000 0
 -6.875000  -5.625000 0
  0.000000  -9.375000 0
 -8.125000  -0.625000 0
 -1.250000  -4.375000 0
 -8.750000   1.875000 0
 -1.875000  -1.875000 0
 -7.500000  -3.125000 0
 -0.625000  -6.875000 0
 -5.000000  -8.750000 0
 -1.875000   1.875000 0
  5.000000  -1.875000 0
  5.625000  -4.375000 0
 -4.375000 -10.000000 0
 -5.000000  -7.500000 0
 -1.875000   3.125000 0
  5.000000  -0.625000 0
  6.250000  -5.625000 0
  5.625000  -3.125000 0
 -5.000000  -8.125000 0
 -1.875000   2.500000 0
  5.000000  -1.250000 0
  5.625000  -3.750000 0
  3.750000   0.000000 0
 -3.125000   3.750000 0
  2.500000   5.000000 0
 -4.375000   8.750000 0
  3.125000   2.500000 0
 -3.750000   6.250000 0
 -8.750000  -2.500000 0
 -8.125000  -5.000000 0
 -9.375000   0.000000 0
 -7.500000  -7.500000 0
-10.000000   2.500000 0
  0.625000   3.125000 0
  7.500000  -0.625000 0
 -6.250000   6.875000 0
 -3.750000 -10.000000 0
 -4.375000  -7.500000 0
  6.875000  -5.625000 0
 -8.125000   3.125000 0
 -1.250000  -0.625000 0
 -6.250000  -4.375000 0
  0.625000  -8.125000 0
 -3.750000   3.750000 0
  1.875000   5.000000 0
 -5.000000   8.750000 0
  2.500000   2.500000 0
 -4.375000   6.250000 0
 -9.375000  -1.875000 0
-10.000000   0.625000 0
 -5.625000   8.125000 0
 -5.000000   5.625000 0
 -4.375000  -8.125000 0
  6.875000  -6.250000 0
  6.250000  -3.750000 0
  3.750000   0.625000 0
 -3.125000   4.375000 0
  9.375000   1.875000 0
  2.500000   5.625000 0
 -4.375000   9.375000 0
  3.125000   3.125000 0
 -3.750000   6.875000 0
 -8.750000  -1.875000 0
 -6.875000  -9.375000 0
  0.000000  10.000000 0
 -7.500000  -6.875000 0
 -8.125000  -4.375000 0
 -9.375000   0.625000 0
 -7.500000  -6.250000 0
 -8.750000  -1.250000 0
 -8.125000  -3.750000 0
 -6.875000  -8.750000 0
 -9.375000   8.750000 0
  9.375000  -8.750000 0
 -7.500000  -4.375000 0
 -0.625000  -8.125000 0
-10.000000   5.625000 0
 -3.125000   1.875000 0
 -9.375000   3.125000 0
 -2.500000  -0.625000 0
 -8.750000   0.625000 0
 -1.875000  -3.125000 0
 -8.125000  -1.875000 0
 -1.250000  -5.625000 0
 -8.125000  -5.625000 0
 -9.375000  -0.625000 0
 -8.750000  -3.125000 0
-10.000000   1.875000 0
 -5.625000   8.750000 0
 -5.000000   6.250000 0
  1.875000   5.625000 0
 -5.000000   9.375000 0
  3.125000   0.625000 0
 -3.750000   4.375000 0
  2.500000   3.125000 0
 -4.375000   6.875000 0
  1.875000   6.250000 0
 -5.000000  10.000000 0
  2.500000   3.750000 0
 -4.375000   7.500000 0
  3.125000   1.250000 0
[...]
CELL_DATA 1024
SCALARS scalar_value float 1
LOOKUP_TABLE default
0.0267335
0.0156005
0.0107319
0.017827
0.00164979
0.002689
0.000966091
0.00130563
0.000541267
0.00996786
9.88348e-05
0.00597632
5.24323e-05
7.54368e-05
0.0184272
0.0121674
0.00976085
0.0146062
0.00287661
0.00631867
0.0111988
0.00778707
0.00854672
0.00483899
0.000294751
0.00396614
0.000154462
0.000102131
0.000129775
0.000247754
0.000194652
0.0313339
0.0221573
0.0390254
0.0556314
3.39675e-05
6.67279e-05
5.26434e-05
2.6925e-05
0.0295329
0.0381292
3.18428e-06
0.00444922
0.0989062
1.33909e-06
0.00265221
0.0743174
0.0136106
0.00555082
0.000154488
0.0219536
0.000488692
0.0245259
0.000126004
3.94892e-05
0.000670301
3.56814e-05
0.000364487
1.64896e-05
0.00024276
7.14321e-05
0.0325674
0.00120965
7.45313e-05
0.00273234
0.000150062
9.13641e-05
0.00932964
6.42507e-05
5.60603e-05
0.000113465
0.000179382
0.00473254
0.000290769
6.32373e-05
7.85434e-05
3.89258e-05
3.0845e-05
0.00174239
0.006141
0.0996494
4.48877e-05
0.00554299
3.44022e-05
0.000854846
0.0165698
0.0143087
0.000418164
0.000551679
0.0570606
0.0132056
0.000464449
0.0103256
0.0375398
0.000414465
0.0329422
0.000143171
0.00983905
0.00566648
0.108284
1.20179e-05
0.0495357
0.00269033
0.109163
2.66914e-05
6.04554e-06
0.00154377
0.0258283
0.00771853
0.0157401
0.00026695
0.0157746
0.00417171
0.00102708
0.017257
0.00904108
0.000294716
0.03687
0.000877414
0.000222195
0.000590651
0.038803
0.00626224
0.0842318
0.00101287
0.0211793
0.0390307
0.0015428
0.0534172
0.0046096
7.36583e-06
0.0804821
0.0717468
2.13885e-05
0.00715235
0.00334039
0.02114
0.000182926
0.0161762
5.31868e-06
0.0803332
3.90573e-05
0.00370336
0.0640036
0.0115503
0.00213955
0.0465744
0.00726972
0.0798317
1.23155e-05
0.0020055
0.00396629
0.000610867
0.00741139
5.56889e-05
0.0569775
2.01072e-05
0.00265303
0.000327518
0.00483381
0.0109867
0.00111597
2.63406e-05
0.055844
0.00140452
0.000332115
0.0254731
0.0152932
0.0243493
0.000595779
0.000934551
0.00170414
0.000171936
0.00304778
0.0010563
0.0372129
0.0258419
0.000172792
0.00596661
0.02029
8.84452e-05
0.0290222
9.17068e-05
0.0133869
2.13859e-05
0.00129361
1.13611e-05
0.000746937
0.000634498
4.61966e-05
0.0217704
0.0101204
4.428e-05
0.0153365
0.00352549
0.0102976
0.00331737
0.000366215
0.000370677
0.000620196
0.000218119
0.000816064
0.00203309
0.0111688
0.0513302
0.0397287
0.00185683
8.83077e-05
0.00402579
0.0518141
0.00241475
7.9348e-05
0.00800705
0.0675243
0.0017178
0.00292325
0.00109238
4.46576e-05
0.00378007
0.00142583
4.02512e-05
0.00193231
0.00745931
0.00033965
0.0002211
0.000113415
0.000754922
0.000452411
0.000126368
0.000545762
0.000981934
0.00529536
0.000630991
0.00516586
0.00109769
0.000608164
0.00341797
0.000211236
0.00216063
0.000117705
0.00114556
0.00783673
2.73261e-05
0.00349444
1.41904e-05
0.00199641
9.49541e-06
0.00182327
1.80851e-05
0.00321462
0.00344314
0.000339725
0.000328467
0.000178673
0.00215278
0.026989
0.0806546
0.132003
0.166805
0.141888
0.109058
0.000803188
0.0999509
0.000492438
0.000103223
0.000177282
0.0901532
0.0664031
0.0495149
0.0658152
0.00143045
0.00224256
0.00488751
0.0857858
0.124258
0.111577
0.0794546
0.057295
5.77287e-05
0.00028894
0.000163268
3.11892e-05
0.0819064
0.112929
0.105415
0.0658856
0.0775793
0.018965
0.023143
0.0147402
0.0120458
0.230278
0.176792
0.201009
0.00413651
0.00239235
0.232798
0.00477159
0.240054
0.00984788
0.00710773
0.208371
0.0378463
0.000291946
0.00185757
0.00663383
0.0012512
0.000510874
0.0635249
0.00121099
0.00444773
0.00577354
0.0888514
0.0813803
0.0991965
0.0231649
0.0709051
0.171172
0.243928
0.060056
0.175834
0.0731942
0.142038
0.0199483
0.0282869
0.00597933
0.00335281
0.154755
0.00403696
0.0124209
0.00631279
0.0058504
0.218795
0.186948
0.015703
0.182645
0.0177941
0.1381
0.220229
0.0151914
0.029206
0.0621976
0.00245177
0.0254754
0.0442332
0.0168655
0.00174941
0.0130347
0.0264113
0.00213487
0.196505
0.0468086
0.000871768
0.00624261
0.228949
0.0175423
0.0218135
0.0935795
0.00099336
0.162776
0.0193448
0.0200655
0.0839902
0.0122596
0.21454
0.0231337
0.0215376
0.00135414
0.00264685
0.0833336
0.112453
0.0168618
0.0590577
0.00263837
0.0223916
0.231637
0.196155
0.0325435
0.0326805
0.240779
0.0100452
0.0110891
0.0889842
0.0660298
0.0812642
0.0181163
0.0053161
0.0049916
0.119977
0.122752
0.00210402
0.146075
0.0038903
0.0532943
0.132351
0.0183347
0.0115274
0.00942159
0.119703
0.106173
0.112811
0.00246055
0.194615
0.0162658
0.166898
0.00827399
0.180863
0.00645204
0.214208
0.0129827
0.130415
0.00351112
0.228966
0.169374
0.0425365
0.207036
0.0459367
0.0287298
0.205575
0.00915895
0.0144735
0.0102282
0.00643564
0.0449926
0.0937902
0.0799918
0.00200953
0.128712
0.00262225
0.139887
0.210918
0.00911419
0.000692583
0.0996822
0.00046012
0.0995844
0.140301
0.0289565
0.0352988
0.138894
0.0518366
0.125404
0.0316355
0.0658775
0.151198
0.0370212
0.0406362
0.0220057
0.12643
0.0245178
0.0404169
0.0342534
0.105785
0.0210267
0.0656584
0.166838
0.0339051
0.152557
0.0551649
0.0137468
0.0618118
0.0450828
0.0841306
0.0159198
0.0380159
0.0284753
0.0998561
0.063077
0.0402429
0.0430406
0.130969
0.105628
0.00320628
0.159383
0.142467
0.0934424
0.118034
0.124953
0.0836472
0.0633454
0.0433173
0.0600061
0.0749784
0.0102568
0.189829
0.00608878
0.180235
0.038509
0.0621598
0.05488
0.0342572
0.0411526
0.0235113
0.0221388
0.172997
0.0127493
0.0285248
0.0124858
0.00750366
0.153576
0.027169
0.0232912
0.0132357
0.143358
0.154597
0.0452378
0.187601
0.208886
0.0328548
0.173007
0.0457878
0.0537941
2.02626e-10
0
4.46553e-05
0.000132933
0.000106715
4.32597e-05
1.95706e-09
1.88986e-09
7.06277e-10
7.43e-10
1.10236e-05
1.06657e-05
2.63087e-05
2.8561e-05
0.000299112
2.18757e-05
0.00102107
9.26995e-06
0.00127127
7.39386e-06
5.19784e-08
1.67777e-05
3.22092e-08
3.69509e-05
7.00401e-08
5.01306e-05
1.13537e-07
6.25636e-09
1.43987e-08
2.32289e-08
1.01317e-08
2.61749e-09
7.54654e-09
3.19643e-09
1.05164e-09
2.18649e-05
7.69947e-06
9.95878e-06
2.71612e-05
1.10341e-07
7.78579e-08
7.86858e-05
1.48084e-07
3.78596e-10
3.04482e-07
1.68755e-10
2.48087e-08
3.54033e-07
7.819e-10
1.02225e-06
6.64517e-07
2.24108e-06
7.27866e-06
3.89098e-06
4.32887e-10
1.24933e-06
4.31187e-09
4.76125e-08
2.01665e-08
1.48097e-08
1.28562e-07
2.32288e-05
0.000200275
1.31296e-09
8.99099e-08
2.12223e-06
0.000104908
3.35192e-08
1.17414e-06
4.2278e-06
6.55191e-05
0.000121976
4.10401e-10
3.62084e-06
2.57927e-08
1.72944e-07
6.31343e-05
3.09228e-08
2.73352e-06
1.24197e-08
1.87426e-09
3.43136e-08
6.23353e-05
2.8731e-10
7.66787e-08
7.35918e-06
6.17056e-08
5.06415e-09
5.14483e-09
0.000326951
1.04266e-08
1.04113e-09
6.08946e-07
0.000236551
1.66199e-08
3.78679e-09
2.50765e-07
7.22976e-05
3.17186e-07
0.00132505
5.49927e-06
0.00094431
3.86003e-06
0.000696192
7.23342e-10
4.57821e-09
1.69363e-08
2.21042e-07
5.45478e-10
2.36982e-10
7.9814e-07
1.78995e-09
6.15651e-07
1.66635e-09
0.000482061
7.24577e-10
2.40911e-07
1.76788e-06
0.000487489
6.52901e-10
5.47226e-07
1.37629e-09
2.3936e-07
3.66799e-06
3.42052e-07
1.37233e-09
1.55501e-07
1.68015e-09
1.0495e-09
6.23324e-08
4.121e-06
2.2267e-08
8.79371e-08
4.18049e-10
1.32117e-05
4.67251e-08
2.81987e-10
5.03716e-07
1.70951e-07
1.27472e-05
1.08464e-09
2.86378e-08
2.27412e-06
4.18118e-06
0.00016136
0.000317314
2.64219e-09
7.8424e-08
4.01035e-06
2.1395e-07
6.85525e-06
1.33121e-06
1.54962e-06
3.83077e-06
0.000409606
3.17375e-06
5.83304e-09
3.35383e-08
8.20689e-08
5.0139e-10
1.70342e-07
6.19595e-10
7.34938e-08
0.000176957
1.05927e-06
0.000493445
2.44261e-06
7.30191e-05
7.9029e-07
0.000191879
8.03049e-09
1.18461e-06
2.89332e-09
2.02156e-06
2.19115e-09
6.10896e-09
6.22661e-07
0.000419425
1.21474e-06
2.46604e-10
1.56702e-05
8.20677e-06
6.32155e-09
1.20546e-05
1.72663e-08
6.17517e-07
2.48539e-09
5.33951e-06
3.29546e-07
2.01133e-09
3.34173e-06
4.14037e-05
1.25199e-07
6.85629e-10
1.65439e-06
7.72407e-10
2.58043e-06
0.00118151
1.34756e-08
1.58945e-06
7.92e-09
1.07395e-05
3.55774e-08
3.76775e-06
3.45232e-08
2.1872e-06
1.33967e-08
8.5003e-07
3.82605e-08
2.56514e-05
5.2821e-05
0
3.39026e-05
1.47983e-08
1.69474e-05
6.56627e-06
2.09489e-05
1.25273e-05
3.42847e-09
5.80745e-07
2.59077e-09
6.31298e-07
4.62541e-08
2.31594e-05
5.74538e-06
7.57224e-08
3.9539e-05
2.22408e-07
7.20338e-05
1.87876e-05
8.3893e-09
1.56561e-06
6.25986e-09
1.64568e-06
9.79723e-07
1.22998e-08
1.31068e-06
1.05058e-08
4.73512e-07
4.21509e-09
4.83042e-09
0.00014655
3.75818e-07
0.000177539
5.58143e-07
5.23381e-10
4.49647e-07
1.55707e-10
3.45581e-07
0
1.48118e-07
1.87267e-07
9.30774e-08
8.44061e-06
0.000111041
2.42082e-07
0.0239261
0.0157314
0.0337161
0.0260882
0.0435681
3.37047e-08
2.07339e-08
4.02921e-08
8.70319e-09
1.17113e-08
5.42777e-08
1.49856e-07
2.98014e-07
7.9674e-08
4.3943e-08
4.17471e-09
6.15752e-09
2.84497e-08
1.92439e-08
0.000642224
0.000281403
0.000436863
0.0010178
0.0115872
0.00547739
0.0114249
0.023209
0.00119153
0.00259858
0.00554076
0.0025207
0.000170971
0.000382107
0.000218121
0.000258736
0.000925616
0.000434502
0.000123707
0.000758289
2.27185e-10
2.90181e-07
1.02318e-07
2.36027e-05
0.00142461
5.40167e-07
9.55436e-08
1.43349e-05
1.34689e-07
0.00431928
0.000197825
8.58737e-05
2.70872e-05
5.87024e-05
2.23483e-08
0.00558642
1.26874e-06
3.81111e-07
7.25186e-06
1.37782e-06
4.67824e-09
5.44821e-06
1.7033e-06
1.23785e-07
3.36907e-07
4.31734e-10
0.00208996
2.02373e-06
3.6404e-09
1.12212e-05
1.26982e-08
5.53876e-10
0.00266806
3.03615e-06
4.31521e-06
0.0129397
1.04908e-06
7.54977e-07
3.20566e-10
0.00151172
1.2908e-06
2.13209e-06
2.145e-08
1.63277e-05
2.9538e-09
7.2959e-06
2.12224e-08
0.000555912
1.77644e-07
3.71796e-05
1.02583e-07
0.0296542
0.000315139
8.26077e-08
5.15462e-07
0.000236542
5.32327e-10
0.0155942
0.00451135
2.19916e-05
1.65732e-06
3.1275e-07
6.75425e-10
3.70377e-07
0.0369802
0.000522534
6.65151e-10
0.00305845
0.00124439
0.00311554
2.13684e-06
0.000165682
4.33512e-07
0.0481339
0.0010826
7.79713e-10
0.00163993
0.00108219
3.03454e-10
1.96547e-06
2.42209e-07
4.0447e-10
0.0152236
0.00587722
1.4297e-05
2.1303e-06
0.000215702
0.00213413
0.000441598
0.000108951
4.67907e-07
0.0530611
0.000862718
6.76276e-05
4.6823e-07
0.0509589
0.000636008
0.00134309
0.00013804
8.32791e-08
7.74452e-05
1.66616e-09
0.00210653
0.00966449
2.26264e-08
6.68804e-08
0.000101326
2.27456e-09
2.96834e-05
0.00319566
4.53834e-06
0.00194471
4.94981e-08
0.000123156
2.07381e-07
0.000432762
5.53407e-05
9.59107e-08
0.0259179
0.00115864
0.000389083
4.85112e-09
9.94982e-05
1.97293e-06
3.63849e-06
4.01733e-05
4.36602e-07
8.75063e-07
4.55427e-06
0.0013014
1.16359e-09
1.22552e-05
7.79496e-10
3.44273e-05
1.17263e-05
0.00235392
0.000141472
0.00381929
0.000456411
8.54449e-10
4.72171e-09
0.00599349
8.81783e-10
0.00256249
0.000131254
0.00389425
7.81087e-10
0.00121321
0.00129808
0.000424786
0.00646116
0.00718226
1.57285e-06
1.5396e-10
0.00310011
4.97866e-07
0.00329034
1.09604e-06
0.00751596
3.84092e-06
1.00336e-10
0.00426846
0.00933784
0.0191725
0.0295114
0.00182008
8.5605e-10
0.000715109
0.00100069
1.89803e-08
2.23724e-05
1.56297e-08
2.87187e-05
7.2831e-06
5.78554e-06
0.0102651
0.000351273
0.000253934
0.0152066
4.30114e-09
0.0208246
3.6574e-09
0.00010894
0.00604218
7.97514e-05
0.00872909
1.49677e-08
5.64732e-09
3.85746e-05
3.63403e-09
3.56543e-05
1.03438e-09
8.67312e-06
1.50269e-09
9.41196e-06
8.48909e-09
3.79808e-05
2.14658e-09
9.34823e-06
1.19514e-08
3.43357e-05
0.000157317
8.15379e-05
0.000740217
0.000425049
8.5632e-06
2.89907e-09
8.02929e-06
0.00699541
4.24723e-09
5.06247e-05
0.0116418
1.81232e-08
2.73083e-05
0.0141858
6.93601e-08
8.38351e-08
