# vtk DataFile Version 2.0
Unstructured Grid by M++
ASCII
DATASET UNSTRUCTURED_GRID
POINTS 1089 float
  6.250000   0.625000 0
  5.625000   0.625000 0
  1.250000   7.500000 0
  4.375000   3.750000 0
  0.625000   8.125000 0
  5.000000   4.375000 0
  8.750000   4.375000 0
  1.875000   8.125000 0
  4.375000   4.375000 0
  1.250000   8.125000 0
  2.500000   8.750000 0
  9.375000   5.000000 0
  5.000000   3.750000 0
  8.750000   8.125000 0
  8.750000   8.750000 0
  9.375000   4.375000 0
  2.500000   8.125000 0
  9.375000   8.750000 0
 10.000000   8.750000 0
  5.000000   3.125000 0
  1.875000   6.875000 0
  4.375000   6.875000 0
  3.750000   8.125000 0
  4.375000   8.125000 0
  7.500000   4.375000 0
  9.375000   0.625000 0
  4.375000   8.750000 0
  7.500000   5.000000 0
  3.750000   8.750000 0
  1.250000   8.750000 0
  4.375000   5.000000 0
  9.375000   1.250000 0
  3.750000   9.375000 0
  7.500000   5.625000 0
  4.375000   9.375000 0
  7.500000   6.250000 0
  4.375000  10.000000 0
  5.000000   1.875000 0
  5.000000   2.500000 0
  7.500000   6.875000 0
  5.625000   1.250000 0
  6.875000   6.875000 0
  5.625000   1.875000 0
  5.625000   2.500000 0
  6.875000   6.250000 0
  3.750000  10.000000 0
  8.750000   7.500000 0
  6.250000   7.500000 0
  6.250000   8.125000 0
  7.500000  10.000000 0
  1.875000   8.750000 0
  8.750000   5.000000 0
  5.000000   6.875000 0
  8.125000   3.125000 0
  6.250000  10.000000 0
  5.625000  10.000000 0
  8.125000   2.500000 0
  8.750000   1.250000 0
  6.250000   9.375000 0
  6.875000  10.000000 0
  1.875000   7.500000 0
  8.750000   3.750000 0
  7.500000   3.125000 0
  0.625000   6.875000 0
  5.625000   9.375000 0
  8.750000   0.625000 0
  6.250000   8.750000 0
  5.625000   7.500000 0
  8.125000   3.750000 0
  5.000000   7.500000 0
  4.375000   5.625000 0
  8.125000   5.625000 0
  1.250000   9.375000 0
  0.625000   7.500000 0
  7.500000   3.750000 0
  4.375000   7.500000 0
  3.750000   5.625000 0
  0.625000   9.375000 0
  6.875000   8.125000 0
  5.000000   8.750000 0
  8.125000   5.000000 0
  8.750000   6.875000 0
  3.750000   6.875000 0
  5.625000   8.750000 0
  1.250000   5.000000 0
  8.125000   1.250000 0
  9.375000   6.875000 0
  5.000000   9.375000 0
  7.500000   7.500000 0
  5.000000   8.125000 0
  8.125000   4.375000 0
  3.750000   6.250000 0
  0.625000  10.000000 0
 10.000000   8.125000 0
 10.000000   3.750000 0
  3.125000   7.500000 0
  6.875000   8.750000 0
  9.375000   7.500000 0
  5.625000   8.125000 0
  4.375000   6.250000 0
  6.875000   9.375000 0
  0.625000   8.750000 0
  7.500000   9.375000 0
  7.500000   8.750000 0
  7.500000   8.125000 0
  6.875000   7.500000 0
 10.000000   6.875000 0
  9.375000   8.125000 0
  9.375000   3.750000 0
  2.500000   7.500000 0
 10.000000   7.500000 0
  3.750000   7.500000 0
  5.000000  10.000000 0
  6.250000   6.875000 0
  1.250000   4.375000 0
  8.125000   0.625000 0
  7.500000   1.250000 0
  0.625000   5.000000 0
  5.625000   6.875000 0
  8.750000   3.125000 0
  8.750000   2.500000 0
  1.250000   6.875000 0
  3.125000   6.875000 0
 10.000000   3.125000 0
  2.500000   6.875000 0
  9.375000   3.125000 0
  8.125000   1.875000 0
  1.250000   5.625000 0
 10.000000  10.000000 0
  9.375000  10.000000 0
  9.375000   9.375000 0
 10.000000   9.375000 0
  8.750000  10.000000 0
  8.750000   9.375000 0
  8.750000   1.875000 0
  8.125000   6.875000 0
  8.125000   7.500000 0
  1.250000  10.000000 0
  8.125000   6.250000 0
  0.625000   0.625000 0
  9.375000   6.250000 0
  2.500000  10.000000 0
  8.750000   6.250000 0
  1.875000  10.000000 0
  8.750000   5.625000 0
  1.875000   9.375000 0
  9.375000   5.625000 0
  2.500000   9.375000 0
 10.000000   5.625000 0
  3.125000   9.375000 0
 10.000000   6.250000 0
  3.125000  10.000000 0
 10.000000   5.000000 0
  3.125000   8.750000 0
 10.000000   4.375000 0
  3.125000   8.125000 0
  8.125000   9.375000 0
  8.125000  10.000000 0
  8.125000   8.750000 0
  8.125000   8.125000 0
  7.500000   1.875000 0
  0.625000   5.625000 0
  7.500000   2.500000 0
  0.625000   6.250000 0
  9.375000   0.000000 0
  1.875000   1.875000 0
  8.750000  -1.875000 0
  5.000000  -6.250000 0
  4.375000  -6.250000 0
 -5.000000  -9.375000 0
 -5.625000  -6.875000 0
 -8.750000   5.625000 0
  5.625000  -5.000000 0
  5.000000  -2.500000 0
 -6.250000  -9.375000 0
 -6.875000  -6.875000 0
  3.125000   5.625000 0
 10.000000   1.875000 0
 -3.750000   9.375000 0
  3.750000   3.125000 0
 -3.125000   6.875000 0
  4.375000   0.625000 0
 -2.500000   4.375000 0
  6.250000   5.625000 0
 -0.625000   9.375000 0
 -7.500000 -10.000000 0
 -8.125000  -7.500000 0
  6.875000   3.125000 0
  0.000000   6.875000 0
 -6.875000   5.625000 0
 -4.375000  -4.375000 0
 -3.750000  -6.875000 0
 -6.875000   5.000000 0
 -5.000000  -2.500000 0
 -4.375000  -5.000000 0
 -3.750000  -7.500000 0
 -6.250000   5.000000 0
 -6.250000   5.625000 0
  3.125000  -8.125000 0
 -3.750000  -4.375000 0
 -5.625000   3.125000 0
  0.625000   1.250000 0
  7.500000  -2.500000 0
 -6.875000   6.250000 0
 -3.750000  -6.250000 0
 -6.250000   3.750000 0
  1.250000  -2.500000 0
 -5.625000   1.250000 0
 -7.500000   5.625000 0
 -5.000000  -4.375000 0
 -4.375000  -6.875000 0
 -5.625000  -1.875000 0
 -6.875000   3.125000 0
 -6.250000   0.625000 0
 -4.375000   1.875000 0
 -5.000000   4.375000 0
  9.375000  -6.250000 0
 10.000000  -8.750000 0
  6.875000   4.375000 0
  0.000000   8.125000 0
 -7.500000  -8.750000 0
 -6.250000   4.375000 0
 -7.500000   6.875000 0
 -3.750000  -8.125000 0
 -5.625000  -0.625000 0
 -4.375000  -5.625000 0
 -5.000000  -3.125000 0
 -6.875000   4.375000 0
-10.000000   7.500000 0
 -6.250000  -7.500000 0
 -5.625000 -10.000000 0
  4.375000  -3.125000 0
 -5.000000 -10.000000 0
 -5.625000  -7.500000 0
 -9.375000   7.500000 0
  5.000000  -3.125000 0
 -5.625000   5.000000 0
 -5.000000   2.500000 0
  8.750000  -5.625000 0
  1.250000   0.625000 0
  8.125000  -3.125000 0
  9.375000  -8.125000 0
 -5.625000   4.375000 0
  8.750000  -6.250000 0
 -5.625000  -8.125000 0
 -9.375000   6.875000 0
  5.000000  -3.750000 0
 -6.250000  -8.125000 0
-10.000000   6.875000 0
  3.750000  -1.250000 0
  3.750000   4.375000 0
 -3.125000   8.125000 0
  4.375000   1.875000 0
 -2.500000   5.625000 0
 -6.250000  -8.750000 0
  3.750000   3.750000 0
 -3.125000   7.500000 0
  4.375000   1.250000 0
 -2.500000   5.000000 0
  3.125000   6.250000 0
 10.000000   2.500000 0
 -3.750000  10.000000 0
 -5.625000  -8.750000 0
-10.000000   8.750000 0
 -9.375000   6.250000 0
  4.375000  -1.875000 0
  5.000000  -4.375000 0
 -9.375000   5.000000 0
 -2.500000   1.250000 0
 -7.500000  -2.500000 0
 -0.625000  -6.250000 0
 -6.875000  -5.000000 0
  0.000000  -8.750000 0
 -8.125000   0.000000 0
 -1.250000  -3.750000 0
 -8.750000   5.000000 0
 -1.875000   1.250000 0
 -8.125000   2.500000 0
 -1.250000  -1.250000 0
 -6.250000  -5.000000 0
  0.625000  -8.750000 0
  4.375000   3.125000 0
 -2.500000   6.875000 0
  5.000000   0.625000 0
 -1.875000   4.375000 0
 -5.625000  -9.375000 0
 -0.625000  -5.625000 0
 -7.500000  -1.875000 0
  0.000000  -8.125000 0
 -6.875000  -4.375000 0
 -6.250000  -6.875000 0
-10.000000   8.125000 0
 -1.875000  -0.625000 0
 -8.750000   3.125000 0
 -2.500000   1.875000 0
 -9.375000   5.625000 0
  4.375000  -2.500000 0
 -8.125000   5.625000 0
 -6.875000   0.625000 0
 -7.500000   3.125000 0
 -7.500000  -5.625000 0
 -6.875000  -8.125000 0
 -8.125000  -3.125000 0
 -8.750000   4.375000 0
 -1.875000   0.625000 0
 -6.875000  -3.125000 0
  0.000000  -6.875000 0
 -6.250000  -5.625000 0
  0.625000  -9.375000 0
 -9.375000   4.375000 0
 -2.500000   0.625000 0
 -6.875000  -5.625000 0
  0.000000  -9.375000 0
 -8.125000  -0.625000 0
 -1.250000  -4.375000 0
 -8.750000   1.875000 0
 -1.875000  -1.875000 0
 -7.500000  -3.125000 0
 -0.625000  -6.875000 0
 -5.000000  -8.750000 0
 -1.875000   1.875000 0
  5.000000  -1.875000 0
  5.625000  -4.375000 0
 -4.375000 -10.000000 0
 -5.000000  -7.500000 0
 -1.875000   3.125000 0
  5.000000  -0.625000 0
  6.250000  -5.625000 0
  5.625000  -3.125000 0
 -5.000000  -8.125000 0
 -1.875000   2.500000 0
  5.000000  -1.250000 0
  5.625000  -3.750000 0
  3.750000   0.000000 0
 -3.125000   3.750000 0
  2.500000   5.000000 0
 -4.375000   8.750000 0
  3.125000   2.500000 0
 -3.750000   6.250000 0
 -8.750000  -2.500000 0
 -8.125000  -5.000000 0
 -9.375000   0.000000 0
 -7.500000  -7.500000 0
-10.000000   2.500000 0
  0.625000   3.125000 0
  7.500000  -0.625000 0
 -6.250000   6.875000 0
 -3.750000 -10.000000 0
 -4.375000  -7.500000 0
  6.875000  -5.625000 0
 -8.125000   3.125000 0
 -1.250000  -0.625000 0
 -6.250000  -4.375000 0
  0.625000  -8.125000 0
 -3.750000   3.750000 0
  1.875000   5.000000 0
 -5.000000   8.750000 0
  2.500000   2.500000 0
 -4.375000   6.250000 0
 -9.375000  -1.875000 0
-10.000000   0.625000 0
 -5.625000   8.125000 0
 -5.000000   5.625000 0
 -4.375000  -8.125000 0
  6.875000  -6.250000 0
  6.250000  -3.750000 0
  3.750000   0.625000 0
 -3.125000   4.375000 0
  9.375000   1.875000 0
  2.500000   5.625000 0
 -4.375000   9.375000 0
  3.125000   3.125000 0
 -3.750000   6.875000 0
 -8.750000  -1.875000 0
 -6.875000  -9.375000 0
  0.000000  10.000000 0
 -7.500000  -6.875000 0
 -8.125000  -4.375000 0
 -9.375000   0.625000 0
 -7.500000  -6.250000 0
 -8.750000  -1.250000 0
 -8.125000  -3.750000 0
 -6.875000  -8.750000 0
 -9.375000   8.750000 0
  9.375000  -8.750000 0
 -7.500000  -4.375000 0
 -0.625000  -8.125000 0
-10.000000   5.625000 0
 -3.125000   1.875000 0
 -9.375000   3.125000 0
 -2.500000  -0.625000 0
 -8.750000   0.625000 0
 -1.875000  -3.125000 0
 -8.125000  -1.875000 0
 -1.250000  -5.625000 0
 -8.125000  -5.625000 0
 -9.375000  -0.625000 0
 -8.750000  -3.125000 0
-10.000000   1.875000 0
 -5.625000   8.750000 0
 -5.000000   6.250000 0
  1.875000   5.625000 0
 -5.000000   9.375000 0
  3.125000   0.625000 0
 -3.750000   4.375000 0
  2.500000   3.125000 0
 -4.375000   6.875000 0
  1.875000   6.250000 0
 -5.000000  10.000000 0
  2.500000   3.750000 0
 -4.375000   7.500000 0
  3.125000   1.250000 0
[...]
CELL_DATA 1024
SCALARS scalar_value float 1
LOOKUP_TABLE default
0.110314
0.0766978
0.0798783
0.109381
0.0108451
0.0145651
0.00766728
0.0136171
0.00516174
0.108238
0.0125243
0.0868876
0.00859968
0.0101507
0.10294
0.0889875
0.0707406
0.0817014
0.0627227
0.0590509
0.0261784
0.0742665
0.0249393
0.0598764
0.0187756
0.0474999
0.0126028
0.0114521
0.0123194
0.0182556
0.0168807
0.0594287
0.0690635
0.105712
0.0970163
0.00515392
0.00806178
0.00754136
0.00486217
0.0974561
0.123162
9.88397e-05
0.0789959
0.170742
4.86024e-05
0.0649543
0.174114
0.0386532
0.0714764
0.00764892
0.123615
0.0293446
0.140899
0.0055552
0.00781023
0.0336657
0.0006814
0.0241774
0.000371355
0.00881759
0.0108808
0.138135
0.0455636
0.00120302
0.0659151
0.00204021
0.00357271
0.109749
0.010095
0.00193261
0.00329197
0.00584655
0.0844307
0.0033175
0.00335558
0.00473231
0.00282757
0.00195482
0.0523731
0.0221792
0.164682
0.00209179
0.0881706
0.00698052
0.0367279
0.126599
0.106592
0.00634762
0.027125
0.142375
0.12534
0.0262663
0.11121
0.17083
0.00836808
0.159823
0.0148772
0.100728
0.0543737
0.182359
0.000426896
0.169219
0.0351638
0.181002
0.00108777
0.00246358
0.0499205
0.137941
0.0488461
0.0689093
0.021192
0.121248
0.0185115
0.0420134
0.0385016
0.0887567
0.0118726
0.157658
0.0394704
0.00403449
0.0325214
0.169627
0.0938053
0.15013
0.0380471
0.144467
0.143498
0.0514842
0.169363
0.0717759
0.000195027
0.134862
0.171037
0.00118062
0.0779805
0.0293933
0.0909442
0.0177253
0.130423
0.000221357
0.186649
0.0067264
0.0762312
0.152676
0.102952
0.0598709
0.14835
0.0922392
0.186286
0.00059064
0.0376306
0.0555303
0.0265819
0.0534718
0.00142602
0.181991
0.00437334
0.0527657
0.0183202
0.0443767
0.0618972
0.0373872
0.000795915
0.182532
0.0369528
0.0243729
0.151638
0.132059
0.153198
0.0293511
0.0338776
0.0472037
0.0122222
0.0353288
0.040126
0.0752044
0.0548196
0.00960352
0.0809558
0.0553135
0.00604941
0.0760271
0.00714234
0.0300486
0.00544211
0.0176782
0.00368232
0.0124542
0.0326451
0.0044226
0.0738107
0.0398161
0.00368748
0.0536127
0.0630358
0.0370313
0.0557091
0.0242463
0.0255597
0.0137224
0.0192243
0.0195679
0.0475818
0.0498772
0.0990932
0.100357
0.0269427
0.00788152
0.012679
0.126808
0.0367796
0.00819176
0.104692
0.124969
0.0350435
0.0466279
0.019662
0.00494183
0.0211599
0.0273781
0.00518982
0.0420201
0.0337264
0.00915815
0.0053681
0.00245107
0.0095277
0.0134155
0.0147014
0.0177049
0.0253871
0.0378976
0.0246661
0.0291311
0.0306494
0.0215922
0.0238427
0.019339
0.0184971
0.014181
0.0348124
0.0444611
0.00573603
0.0675951
0.00376227
0.0510244
0.00310445
0.0518468
0.00468852
0.0686315
0.0308334
0.0169038
0.0146719
0.011188
0.0239166
0.114798
0.0129422
0.150761
0.131995
0.106987
0.122269
6.72632e-05
0.0141865
4.59133e-05
8.5571e-06
1.32043e-05
0.00464047
0.00281644
0.00177785
0.00283801
0.000152809
0.00021496
0.000543079
0.00593375
0.0104643
0.00720623
0.00425417
0.00750639
5.32201e-06
2.99585e-05
1.88018e-05
3.19462e-06
0.00407814
0.006871
0.0761332
0.0459139
0.0866008
0.00652905
0.00986392
0.00691109
0.00457945
0.0989441
0.0907306
0.111159
0.000885143
0.000431168
0.0544888
0.000366283
0.0754776
0.000872726
0.000706201
0.0740529
0.00411928
1.95205e-05
0.00012503
0.00127789
9.39994e-05
6.74536e-05
0.09361
0.000185765
0.000213391
0.000151996
0.0454995
0.0182623
0.028056
0.00212968
0.00820281
0.0548396
0.0688208
0.0150703
0.146599
0.0230353
0.166896
0.0241119
0.0189284
0.000226963
0.000287877
0.065706
8.26947e-05
0.00829583
0.000212517
0.00833079
0.0341802
0.0959167
0.00326285
0.0220292
0.00184349
0.0656598
0.0767958
0.00235096
0.0035868
0.0112392
7.52446e-05
0.00899117
0.00653771
0.00982639
6.73457e-05
0.00151693
0.0140545
7.34104e-05
0.0436407
0.00449882
0.00010362
0.000186013
0.0896609
0.0202787
0.00118868
0.00543507
4.78097e-05
0.0163387
0.00119595
0.000641201
0.0723254
0.00040203
0.100838
0.00430513
0.00297409
5.83118e-05
6.45422e-05
0.0332847
0.0899172
0.000469003
0.0260156
7.22065e-05
0.000820728
0.0422853
0.125712
0.00737764
0.00542933
0.0499612
0.000543795
0.000318998
0.0589051
0.00888954
0.00761619
0.0132006
0.000227076
0.000115943
0.0559992
0.0140885
4.06178e-05
0.047599
0.000630949
0.0213627
0.0145039
0.0167944
0.000552693
0.000237474
0.072866
0.0174658
0.0407538
5.34109e-05
0.0229037
0.00113727
0.0150406
0.000504415
0.0189366
0.000441879
0.0291871
0.00102344
0.00929462
0.000188879
0.0575845
0.149256
0.0118966
0.123272
0.00931358
0.00233599
0.0326778
0.00284764
0.00406326
0.00236581
0.00165179
0.00936332
0.00835601
0.0199492
0.000277428
0.0326103
0.000157908
0.0115846
0.055362
0.00118792
3.72252e-05
0.00671298
2.7595e-05
0.00773319
0.0134063
0.00899823
0.0136349
0.169147
0.0180987
0.159198
0.052165
0.00370262
0.141202
0.0474599
0.00195214
0.000593967
0.125411
0.0335805
0.00222613
0.00105349
0.14064
0.0367568
0.00424568
0.0227659
0.00242966
0.0294954
0.00466412
0.0254882
0.00457955
0.00162184
0.117578
0.0232888
0.00239254
0.000890941
0.105407
0.0353743
0.0195058
0.0263887
0.0232482
0.0211228
0.000397525
0.0360419
0.0109371
0.0410031
0.0147555
0.0356916
0.0085104
0.0455573
0.0338123
0.0556499
0.0843542
0.00177343
0.0731466
0.000886364
0.0528091
0.00160825
0.00302379
0.00230065
0.00123999
0.0410969
0.000986274
0.0055936
0.119336
0.000475698
0.0241407
0.000528792
0.000165679
0.0858776
0.0292071
0.00111523
0.00032017
0.106458
0.024254
0.0514327
0.0377051
0.0371274
0.022333
0.0238687
0.0713116
0.0645786
1.24575e-06
1.39547e-07
0.00190036
0.003355
0.0016943
0.00100839
9.1989e-06
8.47719e-06
4.32123e-06
4.6791e-06
0.00172936
0.00199313
0.00347189
0.0030674
0.00290717
0.00360451
0.00549915
0.00211114
0.0111234
0.00207963
0.000115157
0.00348009
8.0431e-05
0.00568093
0.000142076
0.0060112
0.000199393
2.31361e-05
4.39225e-05
6.44572e-05
3.49306e-05
8.27675e-06
2.40929e-05
1.21114e-05
3.89182e-06
0.00173206
0.000963005
0.00136178
0.00244597
0.000177599
0.000148161
0.00901673
0.000242189
2.39704e-06
0.00039873
1.25798e-06
1.04315e-05
0.000157921
3.40476e-06
0.000868574
0.000664548
0.00146267
0.00296107
0.00202129
2.73349e-06
0.00100522
1.83137e-05
0.000100134
5.51603e-05
4.59607e-05
8.50212e-05
0.00582979
0.0172835
5.87339e-06
9.92146e-05
0.001331
0.0118638
5.26124e-05
0.000902093
0.00112391
0.00969189
0.0138976
1.77148e-06
0.000750262
6.16924e-05
0.000255548
0.00592122
6.48745e-05
0.000531443
2.76166e-05
9.37903e-06
8.36697e-05
0.00309587
2.16935e-06
0.00011919
0.00299263
6.31471e-05
1.65019e-05
1.788e-05
0.0158923
2.2639e-05
4.65537e-06
0.00063475
0.0153418
1.63142e-05
1.17371e-05
0.000308084
0.0053473
0.00035819
0.0171047
0.00192473
0.0243909
0.0016877
0.0247481
4.75359e-06
1.43401e-05
2.40564e-05
0.000218051
3.93551e-06
1.23712e-06
0.000705537
9.28551e-06
0.000379295
8.94381e-06
0.023271
4.5525e-06
0.000207699
0.00102255
0.0130385
4.50299e-06
0.000392962
7.90629e-06
0.000185196
0.00186282
0.000422337
6.0222e-06
0.000210979
7.3573e-06
6.37417e-06
0.000112449
0.00212277
3.33218e-05
0.000119245
3.11674e-06
0.00421701
4.54049e-05
1.76594e-06
0.000546935
0.000118723
0.0040972
5.76838e-06
4.32608e-05
0.00146384
0.000960966
0.0138649
0.0205755
1.17582e-05
8.19432e-05
0.00205666
0.000153861
0.00279498
0.000697202
0.000683172
0.0012116
0.00601679
0.00121584
8.64257e-06
6.46763e-05
0.000151211
3.08561e-06
0.000257843
3.7581e-06
0.000119169
0.00550657
0.000668529
0.00974799
0.00114605
0.00434133
0.000606402
0.00759492
1.74432e-05
0.000978472
9.05374e-06
0.0013428
6.59094e-06
1.26444e-05
0.000581855
0.0151692
0.000868811
8.26664e-07
0.00107905
0.00272132
1.70186e-05
0.00315959
4.61835e-05
6.37404e-05
2.96495e-06
0.00223859
0.000104081
4.53835e-06
0.00176745
0.00804567
5.66308e-05
2.36139e-06
0.00113049
1.55766e-06
0.00141125
0.0218074
3.16694e-05
0.000113838
5.58866e-06
0.00346168
6.00004e-05
0.000200611
6.42948e-05
0.000341493
3.41687e-05
0.00018946
8.52161e-05
0.0050567
0.00786757
5.4842e-07
0.00653781
3.37883e-05
0.0042774
0.00269352
0.00520778
0.00399524
1.55223e-05
0.000286268
1.26985e-05
0.000341991
3.05303e-05
0.00575754
0.000609604
1.92777e-05
0.00760529
3.5253e-05
0.0107568
0.000596716
2.96463e-05
0.000527378
2.45253e-05
0.000624118
0.000290909
3.47059e-05
0.000409402
3.31535e-05
0.000221405
1.74261e-05
1.82251e-05
0.0098474
0.000429821
0.0091262
0.000523008
2.75086e-06
0.000382755
7.81455e-07
0.000352486
3.34436e-07
0.000200995
0.000215372
0.000112307
0.000348521
0.00975549
0.00033502
0.000627483
0.000365992
0.00101937
0.000757823
0.00155887
1.21892e-06
8.50648e-09
8.76792e-10
4.25232e-10
9.17368e-10
1.75281e-09
1.16102e-05
6.75639e-06
3.77906e-06
6.38052e-06
0
1.97015e-10
4.47781e-10
2.35636e-10
6.67204e-06
2.47484e-06
3.9173e-06
1.09345e-05
0.00124757
0.00100641
0.00309231
0.00364817
0.000158081
0.000361858
0.00041184
0.00014345
1.48594e-06
3.8725e-06
2.17429e-06
0.000791443
0.00043246
0.000248849
0.000493551
8.98125e-06
0
6.59998e-07
2.90532e-08
1.57899e-07
0.00271581
3.80804e-06
1.45486e-08
9.73618e-08
2.17142e-06
0.00252371
0.00015334
9.52553e-05
0.000185677
0.000305645
1.7137e-08
0.000108151
1.11181e-06
1.23929e-08
9.52886e-07
1.41158e-08
9.03424e-09
1.84166e-06
2.39485e-08
1.13165e-09
2.2082e-09
2.91294e-10
2.47351e-05
1.23305e-08
2.04891e-09
6.86582e-08
3.46576e-06
6.77788e-10
3.37315e-05
1.86787e-08
2.76118e-08
0.000508199
8.68482e-09
5.48267e-09
1.22031e-10
1.69557e-05
7.93604e-09
1.5359e-07
6.45529e-08
1.00339e-07
9.35311e-10
4.50607e-08
2.0851e-06
0.00132636
1.96321e-09
2.46592e-07
5.71107e-08
0.00126414
2.49394e-06
6.68396e-10
3.48497e-09
1.82365e-06
1.87875e-07
0.000414828
6.63725e-05
3.02779e-06
5.80683e-07
6.49321e-09
1.53396e-09
3.50818e-07
0.00381737
8.35148e-05
1.05338e-07
5.53041e-05
1.33654e-05
4.27115e-05
6.56398e-06
1.2578e-06
1.82755e-07
0.00353364
5.79116e-05
5.68102e-08
2.81256e-05
1.08818e-05
5.2756e-07
2.99102e-07
3.50944e-09
3.21677e-07
0.000483224
9.42311e-05
5.83079e-06
7.98229e-08
4.92577e-05
3.38848e-05
3.89742e-06
8.21265e-07
9.3725e-08
0.00293668
8.25685e-06
5.0976e-07
4.76164e-08
0.0022258
5.86352e-06
1.85052e-05
1.1232e-06
2.08172e-07
5.19015e-07
1.81806e-10
2.7184e-05
0.00020337
3.36839e-08
3.84549e-07
6.98204e-07
4.16579e-10
1.59618e-06
4.37579e-05
2.85577e-08
0.000905458
6.93464e-07
8.98114e-07
1.21285e-06
2.82788e-05
3.669e-07
1.10179e-07
0.00141535
1.75558e-05
3.21e-06
1.81254e-08
8.60601e-07
4.27443e-08
3.51664e-06
3.04716e-07
2.4171e-08
2.08438e-06
6.44636e-05
1.60066e-05
0
3.5028e-05
0
5.83455e-05
0.000110477
3.40873e-05
1.41678e-06
6.43981e-05
4.52416e-06
7.18099e-09
3.52357e-08
0.000168649
1.48096e-08
5.36919e-05
1.91306e-06
5.99858e-05
3.3708e-09
1.64918e-05
1.52937e-05
5.21587e-06
0.000117285
0.000167352
3.69593e-05
0
5.36609e-05
2.08605e-05
4.99033e-05
1.18992e-05
0.00015091
2.06075e-05
0
0.000156386
0.000479033
0.00141325
0.00102193
5.26585e-05
2.95241e-08
2.00934e-05
1.74807e-05
1.20595e-07
1.41099e-07
2.19615e-07
1.92733e-07
5.96801e-08
4.03707e-08
0.000203688
6.44268e-06
9.29965e-06
0.000335573
6.63515e-08
0.000521259
1.21042e-07
2.92499e-06
0.000100322
5.08612e-06
0.000158558
1.96096e-09
1.13592e-06
5.40132e-07
1.86168e-06
8.87639e-07
9.89476e-07
4.95614e-07
6.11294e-07
2.65612e-07
6.74324e-07
3.62622e-07
3.67064e-07
1.50635e-07
3.89837e-07
2.60955e-07
1.59273e-05
3.01462e-05
9.81546e-06
4.89541e-06
9.17941e-08
2.14018e-07
1.11048e-05
0.000124263
4.36636e-09
9.57306e-06
0.000235266
4.12596e-09
1.84351e-05
0.000325177
3.54773e-09
7.20281e-09
