# vtk DataFile Version 2.0
Unstructured Grid by M++
ASCII
DATASET UNSTRUCTURED_GRID
POINTS 1089 float
  6.250000   0.625000 0
  5.625000   0.625000 0
  1.250000   7.500000 0
  4.375000   3.750000 0
  0.625000   8.125000 0
  5.000000   4.375000 0
  8.750000   4.375000 0
  1.875000   8.125000 0
  4.375000   4.375000 0
  1.250000   8.125000 0
  2.500000   8.750000 0
  9.375000   5.000000 0
  5.000000   3.750000 0
  8.750000   8.125000 0
  8.750000   8.750000 0
  9.375000   4.375000 0
  2.500000   8.125000 0
  9.375000   8.750000 0
 10.000000   8.750000 0
  5.000000   3.125000 0
  1.875000   6.875000 0
  4.375000   6.875000 0
  3.750000   8.125000 0
  4.375000   8.125000 0
  7.500000   4.375000 0
  9.375000   0.625000 0
  4.375000   8.750000 0
  7.500000   5.000000 0
  3.750000   8.750000 0
  1.250000   8.750000 0
  4.375000   5.000000 0
  9.375000   1.250000 0
  3.750000   9.375000 0
  7.500000   5.625000 0
  4.375000   9.375000 0
  7.500000   6.250000 0
  4.375000  10.000000 0
  5.000000   1.875000 0
  5.000000   2.500000 0
  7.500000   6.875000 0
  5.625000   1.250000 0
  6.875000   6.875000 0
  5.625000   1.875000 0
  5.625000   2.500000 0
  6.875000   6.250000 0
  3.750000  10.000000 0
  8.750000   7.500000 0
  6.250000   7.500000 0
  6.250000   8.125000 0
  7.500000  10.000000 0
  1.875000   8.750000 0
  8.750000   5.000000 0
  5.000000   6.875000 0
  8.125000   3.125000 0
  6.250000  10.000000 0
  5.625000  10.000000 0
  8.125000   2.500000 0
  8.750000   1.250000 0
  6.250000   9.375000 0
  6.875000  10.000000 0
  1.875000   7.500000 0
  8.750000   3.750000 0
  7.500000   3.125000 0
  0.625000   6.875000 0
  5.625000   9.375000 0
  8.750000   0.625000 0
  6.250000   8.750000 0
  5.625000   7.500000 0
  8.125000   3.750000 0
  5.000000   7.500000 0
  4.375000   5.625000 0
  8.125000   5.625000 0
  1.250000   9.375000 0
  0.625000   7.500000 0
  7.500000   3.750000 0
  4.375000   7.500000 0
  3.750000   5.625000 0
  0.625000   9.375000 0
  6.875000   8.125000 0
  5.000000   8.750000 0
  8.125000   5.000000 0
  8.750000   6.875000 0
  3.750000   6.875000 0
  5.625000   8.750000 0
  1.250000   5.000000 0
  8.125000   1.250000 0
  9.375000   6.875000 0
  5.000000   9.375000 0
  7.500000   7.500000 0
  5.000000   8.125000 0
  8.125000   4.375000 0
  3.750000   6.250000 0
  0.625000  10.000000 0
 10.000000   8.125000 0
 10.000000   3.750000 0
  3.125000   7.500000 0
  6.875000   8.750000 0
  9.375000   7.500000 0
  5.625000   8.125000 0
  4.375000   6.250000 0
  6.875000   9.375000 0
  0.625000   8.750000 0
  7.500000   9.375000 0
  7.500000   8.750000 0
  7.500000   8.125000 0
  6.875000   7.500000 0
 10.000000   6.875000 0
  9.375000   8.125000 0
  9.375000   3.750000 0
  2.500000   7.500000 0
 10.000000   7.500000 0
  3.750000   7.500000 0
  5.000000  10.000000 0
  6.250000   6.875000 0
  1.250000   4.375000 0
  8.125000   0.625000 0
  7.500000   1.250000 0
  0.625000   5.000000 0
  5.625000   6.875000 0
  8.750000   3.125000 0
  8.750000   2.500000 0
  1.250000   6.875000 0
  3.125000   6.875000 0
 10.000000   3.125000 0
  2.500000   6.875000 0
  9.375000   3.125000 0
  8.125000   1.875000 0
  1.250000   5.625000 0
 10.000000  10.000000 0
  9.375000  10.000000 0
  9.375000   9.375000 0
 10.000000   9.375000 0
  8.750000  10.000000 0
  8.750000   9.375000 0
  8.750000   1.875000 0
  8.125000   6.875000 0
  8.125000   7.500000 0
  1.250000  10.000000 0
  8.125000   6.250000 0
  0.625000   0.625000 0
  9.375000   6.250000 0
  2.500000  10.000000 0
  8.750000   6.250000 0
  1.875000  10.000000 0
  8.750000   5.625000 0
  1.875000   9.375000 0
  9.375000   5.625000 0
  2.500000   9.375000 0
 10.000000   5.625000 0
  3.125000   9.375000 0
 10.000000   6.250000 0
  3.125000  10.000000 0
 10.000000   5.000000 0
  3.125000   8.750000 0
 10.000000   4.375000 0
  3.125000   8.125000 0
  8.125000   9.375000 0
  8.125000  10.000000 0
  8.125000   8.750000 0
  8.125000   8.125000 0
  7.500000   1.875000 0
  0.625000   5.625000 0
  7.500000   2.500000 0
  0.625000   6.250000 0
  9.375000   0.000000 0
  1.875000   1.875000 0
  8.750000  -1.875000 0
  5.000000  -6.250000 0
  4.375000  -6.250000 0
 -5.000000  -9.375000 0
 -5.625000  -6.875000 0
 -8.750000   5.625000 0
  5.625000  -5.000000 0
  5.000000  -2.500000 0
 -6.250000  -9.375000 0
 -6.875000  -6.875000 0
  3.125000   5.625000 0
 10.000000   1.875000 0
 -3.750000   9.375000 0
  3.750000   3.125000 0
 -3.125000   6.875000 0
  4.375000   0.625000 0
 -2.500000   4.375000 0
  6.250000   5.625000 0
 -0.625000   9.375000 0
 -7.500000 -10.000000 0
 -8.125000  -7.500000 0
  6.875000   3.125000 0
  0.000000   6.875000 0
 -6.875000   5.625000 0
 -4.375000  -4.375000 0
 -3.750000  -6.875000 0
 -6.875000   5.000000 0
 -5.000000  -2.500000 0
 -4.375000  -5.000000 0
 -3.750000  -7.500000 0
 -6.250000   5.000000 0
 -6.250000   5.625000 0
  3.125000  -8.125000 0
 -3.750000  -4.375000 0
 -5.625000   3.125000 0
  0.625000   1.250000 0
  7.500000  -2.500000 0
 -6.875000   6.250000 0
 -3.750000  -6.250000 0
 -6.250000   3.750000 0
  1.250000  -2.500000 0
 -5.625000   1.250000 0
 -7.500000   5.625000 0
 -5.000000  -4.375000 0
 -4.375000  -6.875000 0
 -5.625000  -1.875000 0
 -6.875000   3.125000 0
 -6.250000   0.625000 0
 -4.375000   1.875000 0
 -5.000000   4.375000 0
  9.375000  -6.250000 0
 10.000000  -8.750000 0
  6.875000   4.375000 0
  0.000000   8.125000 0
 -7.500000  -8.750000 0
 -6.250000   4.375000 0
 -7.500000   6.875000 0
 -3.750000  -8.125000 0
 -5.625000  -0.625000 0
 -4.375000  -5.625000 0
 -5.000000  -3.125000 0
 -6.875000   4.375000 0
-10.000000   7.500000 0
 -6.250000  -7.500000 0
 -5.625000 -10.000000 0
  4.375000  -3.125000 0
 -5.000000 -10.000000 0
 -5.625000  -7.500000 0
 -9.375000   7.500000 0
  5.000000  -3.125000 0
 -5.625000   5.000000 0
 -5.000000   2.500000 0
  8.750000  -5.625000 0
  1.250000   0.625000 0
  8.125000  -3.125000 0
  9.375000  -8.125000 0
 -5.625000   4.375000 0
  8.750000  -6.250000 0
 -5.625000  -8.125000 0
 -9.375000   6.875000 0
  5.000000  -3.750000 0
 -6.250000  -8.125000 0
-10.000000   6.875000 0
  3.750000  -1.250000 0
  3.750000   4.375000 0
 -3.125000   8.125000 0
  4.375000   1.875000 0
 -2.500000   5.625000 0
 -6.250000  -8.750000 0
  3.750000   3.750000 0
 -3.125000   7.500000 0
  4.375000   1.250000 0
 -2.500000   5.000000 0
  3.125000   6.250000 0
 10.000000   2.500000 0
 -3.750000  10.000000 0
 -5.625000  -8.750000 0
-10.000000   8.750000 0
 -9.375000   6.250000 0
  4.375000  -1.875000 0
  5.000000  -4.375000 0
 -9.375000   5.000000 0
 -2.500000   1.250000 0
 -7.500000  -2.500000 0
 -0.625000  -6.250000 0
 -6.875000  -5.000000 0
  0.000000  -8.750000 0
 -8.125000   0.000000 0
 -1.250000  -3.750000 0
 -8.750000   5.000000 0
 -1.875000   1.250000 0
 -8.125000   2.500000 0
 -1.250000  -1.250000 0
 -6.250000  -5.000000 0
  0.625000  -8.750000 0
  4.375000   3.125000 0
 -2.500000   6.875000 0
  5.000000   0.625000 0
 -1.875000   4.375000 0
 -5.625000  -9.375000 0
 -0.625000  -5.625000 0
 -7.500000  -1.875000 0
  0.000000  -8.125000 0
 -6.875000  -4.375000 0
 -6.250000  -6.875000 0
-10.000000   8.125000 0
 -1.875000  -0.625000 0
 -8.750000   3.125000 0
 -2.500000   1.875000 0
 -9.375000   5.625000 0
  4.375000  -2.500000 0
 -8.125000   5.625000 0
 -6.875000   0.625000 0
 -7.500000   3.125000 0
 -7.500000  -5.625000 0
 -6.875000  -8.125000 0
 -8.125000  -3.125000 0
 -8.750000   4.375000 0
 -1.875000   0.625000 0
 -6.875000  -3.125000 0
  0.000000  -6.875000 0
 -6.250000  -5.625000 0
  0.625000  -9.375000 0
 -9.375000   4.375000 0
 -2.500000   0.625000 0
 -6.875000  -5.625000 0
  0.000000  -9.375000 0
 -8.125000  -0.625000 0
 -1.250000  -4.375000 0
 -8.750000   1.875000 0
 -1.875000  -1.875000 0
 -7.500000  -3.125000 0
 -0.625000  -6.875000 0
 -5.000000  -8.750000 0
 -1.875000   1.875000 0
  5.000000  -1.875000 0
  5.625000  -4.375000 0
 -4.375000 -10.000000 0
 -5.000000  -7.500000 0
 -1.875000   3.125000 0
  5.000000  -0.625000 0
  6.250000  -5.625000 0
  5.625000  -3.125000 0
 -5.000000  -8.125000 0
 -1.875000   2.500000 0
  5.000000  -1.250000 0
  5.625000  -3.750000 0
  3.750000   0.000000 0
 -3.125000   3.750000 0
  2.500000   5.000000 0
 -4.375000   8.750000 0
  3.125000   2.500000 0
 -3.750000   6.250000 0
 -8.750000  -2.500000 0
 -8.125000  -5.000000 0
 -9.375000   0.000000 0
 -7.500000  -7.500000 0
-10.000000   2.500000 0
  0.625000   3.125000 0
  7.500000  -0.625000 0
 -6.250000   6.875000 0
 -3.750000 -10.000000 0
 -4.375000  -7.500000 0
  6.875000  -5.625000 0
 -8.125000   3.125000 0
 -1.250000  -0.625000 0
 -6.250000  -4.375000 0
  0.625000  -8.125000 0
 -3.750000   3.750000 0
  1.875000   5.000000 0
 -5.000000   8.750000 0
  2.500000   2.500000 0
 -4.375000   6.250000 0
 -9.375000  -1.875000 0
-10.000000   0.625000 0
 -5.625000   8.125000 0
 -5.000000   5.625000 0
 -4.375000  -8.125000 0
  6.875000  -6.250000 0
  6.250000  -3.750000 0
  3.750000   0.625000 0
 -3.125000   4.375000 0
  9.375000   1.875000 0
  2.500000   5.625000 0
 -4.375000   9.375000 0
  3.125000   3.125000 0
 -3.750000   6.875000 0
 -8.750000  -1.875000 0
 -6.875000  -9.375000 0
  0.000000  10.000000 0
 -7.500000  -6.875000 0
 -8.125000  -4.375000 0
 -9.375000   0.625000 0
 -7.500000  -6.250000 0
 -8.750000  -1.250000 0
 -8.125000  -3.750000 0
 -6.875000  -8.750000 0
 -9.375000   8.750000 0
  9.375000  -8.750000 0
 -7.500000  -4.375000 0
 -0.625000  -8.125000 0
-10.000000   5.625000 0
 -3.125000   1.875000 0
 -9.375000   3.125000 0
 -2.500000  -0.625000 0
 -8.750000   0.625000 0
 -1.875000  -3.125000 0
 -8.125000  -1.875000 0
 -1.250000  -5.625000 0
 -8.125000  -5.625000 0
 -9.375000  -0.625000 0
 -8.750000  -3.125000 0
-10.000000   1.875000 0
 -5.625000   8.750000 0
 -5.000000   6.250000 0
  1.875000   5.625000 0
 -5.000000   9.375000 0
  3.125000   0.625000 0
 -3.750000   4.375000 0
  2.500000   3.125000 0
 -4.375000   6.875000 0
  1.875000   6.250000 0
 -5.000000  10.000000 0
  2.500000   3.750000 0
 -4.375000   7.500000 0
  3.125000   1.250000 0
[...]
CELL_DATA 1024
SCALARS scalar_value float 1
LOOKUP_TABLE default
0.0518943
0.0561941
0.0750393
0.0674574
0.000716882
0.000802752
0.000605223
0.00150077
0.000484614
0.0385898
0.0555421
0.0384186
0.0436198
0.0386119
0.0120997
0.013111
0.00870205
0.00806989
0.107912
0.00897006
0.000660707
0.0135942
0.000772452
0.0134941
0.0270983
0.00883204
0.0212726
0.0329266
0.0270101
0.0343428
0.0418495
0.0222512
0.0376423
0.0363313
0.0229064
0.0149723
0.0204327
0.0249476
0.0183494
0.00605831
0.00897066
2.84934e-05
0.0945218
0.0103119
1.62626e-05
0.0940497
0.0140473
0.00132024
0.019809
0.00500008
0.0176157
0.0712884
0.0248667
0.00293051
0.0639017
0.0605471
0.000123651
0.0512628
7.88462e-05
0.00397801
0.0788617
0.0154617
0.0689309
0.000186039
0.0615851
0.000268044
0.00153376
0.0510294
0.0606195
0.000681242
0.000995008
0.00214975
0.0646884
0.000369087
0.0020588
0.00360033
0.00248889
0.00138789
0.107413
0.000837271
0.0197331
0.00104375
0.0507643
0.0475291
0.0495716
0.0690009
0.0191437
0.000984802
0.033185
0.0332851
0.0623616
0.0420374
0.0763881
0.0386
0.00183606
0.0485098
0.0491049
0.0281771
0.0812306
0.0134169
0.00014523
0.0388325
0.0864802
0.0166942
0.000445524
0.028027
0.0563178
0.058424
0.0592795
0.00466471
0.0602354
0.0270874
0.000846618
0.101879
0.00105589
0.0198958
0.00662727
0.0217222
0.0813433
0.000737686
0.0925963
0.0294998
0.0798875
0.00762062
0.0391025
0.056671
0.0459639
0.0893139
0.0179825
0.102527
4.8314e-05
0.0219855
0.028847
0.000681805
0.0912164
0.0622759
0.0071542
0.0682558
0.0370782
8.72652e-05
0.0186406
0.0292659
0.0794467
0.0102041
0.0807678
0.0755328
0.0129038
0.0900863
0.0237351
0.000280089
0.10695
0.099991
0.025184
0.00557142
0.000358034
0.0241977
0.0215825
0.113002
0.0205164
0.00566587
0.00521911
0.0296961
0.000232971
0.0313194
0.120955
0.0809604
0.033953
0.0489918
0.0447186
0.126443
0.127362
0.119124
0.0160403
0.00548073
0.118506
0.00252782
0.00165399
0.00784657
0.028068
0.00209968
0.00575452
0.00324724
0.00856734
0.0205167
0.0500063
0.00275897
0.0377875
0.00231117
0.112208
0.00612909
0.00398204
0.0377802
0.00405654
0.0025465
0.0268229
0.00156526
0.0189091
0.119432
0.101753
0.00364375
0.108026
0.00633629
0.0246117
0.00294482
0.00376148
0.00489286
0.00503721
0.0120255
0.0193499
0.00717226
0.0082974
0.0160393
0.0650549
0.0054387
0.0116483
0.0128201
0.00439627
0.00869674
0.0383859
0.0074298
0.0116896
0.017305
0.00175123
0.00286971
0.00138556
0.000526113
0.00124884
0.0051449
0.0939832
0.00838054
0.0101121
0.00337838
0.0183289
0.0018443
0.0151736
0.0127363
0.00182739
0.0887501
0.00170505
0.0746484
0.0216825
0.00323849
0.0330457
0.0366876
0.0244194
0.0336621
0.026629
0.0443514
0.0359689
0.0484052
0.00333727
0.0148538
0.010225
0.0115299
0.00311928
0.0106697
3.76405e-05
0.0123503
0.00711671
0.00723101
0.0131542
7.56489e-08
4.18442e-05
5.12234e-08
9.33293e-09
1.49892e-08
0.000117461
7.30256e-05
0.000107712
0.000172613
1.83403e-07
2.54406e-07
7.14576e-07
0.000437692
0.000308058
0.000189515
0.000275353
1.68516e-05
5.7608e-09
3.39197e-08
2.1938e-08
3.5111e-09
5.03964e-05
8.3213e-05
0.00675811
0.00581852
0.0129477
2.50272e-05
4.85514e-05
3.39164e-05
1.77111e-05
0.0019364
0.00376945
0.00385125
1.80176e-06
7.34601e-07
0.000473007
4.56122e-07
0.000976822
1.15091e-06
9.19446e-07
0.00189534
7.43458e-06
2.4097e-08
1.59599e-07
2.50856e-06
1.10118e-07
8.667e-08
0.00274767
2.71178e-07
5.21126e-07
4.37252e-06
0.000423698
7.02193e-05
0.000145914
3.25536e-06
1.87541e-05
0.00170527
0.000980205
5.75603e-05
0.00650783
0.000117449
0.0108399
0.00985967
0.000155846
1.23739e-06
3.43677e-07
0.000684112
9.22305e-06
0.00479733
1.90995e-06
0.00890656
0.000221299
0.0015313
7.66682e-06
0.000103993
2.75882e-06
0.00341522
0.00091656
4.34575e-06
6.43229e-06
3.25741e-05
9.34762e-07
0.00284239
1.46585e-05
6.15348e-05
3.23054e-07
2.27811e-06
8.93874e-05
5.53953e-07
0.000849221
8.39061e-06
1.28046e-07
2.91525e-06
0.00198259
0.000262857
2.8259e-06
3.65905e-05
1.09354e-07
0.000242307
2.17878e-06
1.17433e-05
0.00122266
4.85221e-06
0.0017727
9.90131e-06
5.38665e-06
1.87398e-07
2.45157e-06
0.000228869
0.00166255
1.73346e-05
0.000173439
1.53834e-06
7.93971e-06
0.00044861
0.00324598
2.16301e-05
1.22858e-05
0.000469966
1.09136e-06
7.21092e-06
0.000741647
0.00110181
0.000694341
0.000105661
7.99869e-07
6.42196e-06
0.000549805
0.000507083
5.53426e-06
0.000352966
1.03183e-06
0.00259223
4.72355e-05
0.000171492
1.53087e-06
1.06058e-05
0.000985161
0.000849715
0.000290352
3.76223e-06
0.000218505
1.74123e-06
0.000115851
8.01624e-07
0.000106535
6.0201e-07
0.0002167
1.41657e-06
6.38949e-05
3.45027e-07
0.000928899
0.00558834
4.53176e-05
0.00365366
2.70816e-05
3.79152e-06
0.000426192
8.76306e-06
1.22599e-05
5.70342e-06
4.0992e-06
0.0017564
2.20829e-05
0.00145831
3.88234e-07
0.000173707
2.3285e-07
5.41471e-05
0.000452001
1.81871e-06
6.47941e-08
2.87282e-05
3.91598e-08
2.44713e-05
4.96396e-05
3.43174e-05
6.76176e-05
0.00898456
9.08225e-05
0.00708948
0.00124553
1.5933e-05
0.00454706
0.000889316
9.18154e-06
4.12395e-05
0.00353129
0.000584087
6.81201e-06
6.68524e-05
0.00536008
0.000805715
1.26069e-05
0.000432411
4.44296e-06
0.000796135
9.38664e-06
0.000519978
1.06503e-05
4.53842e-05
0.00390278
0.000380412
5.3633e-06
2.81217e-05
0.0026327
0.00031426
0.000126689
0.000224991
9.20802e-05
8.21513e-05
5.36732e-07
0.000197632
0.000140108
0.00292456
4.49629e-05
0.00150675
2.04006e-05
0.000538185
0.000377584
0.00086835
0.00189285
3.36958e-06
0.000812555
1.39769e-06
0.000409602
1.302e-05
2.15997e-05
3.08918e-05
1.90427e-05
0.000597326
5.43794e-06
1.66049e-05
0.00272382
3.25981e-06
0.000256743
2.2107e-06
1.53403e-05
0.00125651
0.000398944
3.83686e-06
2.52598e-05
0.0021749
9.89648e-05
0.0116837
0.000214475
0.000222165
0.00487454
0.000102544
0.00187624
0.00131709
0.000432367
4.98301e-05
0.0518138
0.0505545
0.0342128
0.0370026
0.00804521
0.00849877
0.00565351
0.00527679
0.0814398
0.0884953
0.100973
0.0923522
0.0289722
0.104624
0.0225872
0.0914721
0.0417183
0.0902088
0.0178277
0.103183
0.0116534
0.114723
0.0163275
0.116283
0.0239396
0.00516952
0.0079403
0.0127043
0.00865968
0.00118347
0.00390814
0.00239674
0.000673888
0.0651054
0.0590805
0.0711648
0.0797928
0.0297285
0.0239997
0.123728
0.0218301
0.00526053
0.0278592
0.000607293
0.0122162
0.0364141
0.00683339
0.0451715
0.0276182
0.0444927
0.0617469
0.057431
0.00109933
0.0321416
0.00564703
0.0222972
0.0160993
0.0124366
0.029346
0.0651686
0.122696
0.0014093
0.0312811
0.0259851
0.121595
0.0236217
0.0226685
0.0754819
0.109682
0.110756
0.000369807
0.0615676
0.0193149
0.0313698
0.111899
0.0218208
0.0518021
0.0173618
0.00721758
0.0176398
0.069078
0.00121568
0.0294107
0.0502699
0.0265447
0.0124209
0.011898
0.124861
0.0164867
0.00765301
0.0339735
0.130646
0.0149602
0.0118489
0.0382434
0.101608
0.0144967
0.0658604
0.0851591
0.111142
0.0771756
0.125208
0.00465467
0.0123886
0.0177163
0.0407545
0.00292866
0.00412857
0.0479523
0.00352507
0.0523731
0.00608257
0.131452
0.00210839
0.0414302
0.0658592
0.092031
0.00384311
0.0516126
0.0047524
0.0404007
0.0279412
0.022562
0.00825729
0.0107057
0.00856033
0.00337396
0.0263189
0.0480943
0.0202494
0.0313421
0.00201724
0.0644088
0.0230798
0.00474243
0.0380234
0.0339717
0.0509175
0.00192082
0.0222994
0.0356252
0.0698192
0.129151
0.130183
0.00321962
0.0293893
0.0377408
0.0378064
0.0384155
0.063742
0.0646362
0.0778653
0.0467323
0.0767957
0.0112747
0.00505401
0.012935
0.00561976
0.0175175
0.00576377
0.00752824
0.0704107
0.060279
0.0690679
0.0725808
0.0865863
0.0547027
0.0907971
0.0150605
0.0396715
0.0108975
0.0517817
0.00965971
0.0132604
0.0186365
0.111579
0.0574069
0.00347877
0.0503784
0.0880158
0.00199994
0.0972848
0.00609944
0.023863
0.0068512
0.076617
0.0300242
0.00826973
0.0642426
0.0805604
0.0244132
0.00589177
0.0563638
0.00491552
0.0672636
0.090412
0.0175493
0.0282099
0.009275
0.0848363
0.02403
0.0322597
0.0234275
0.0417042
0.0169777
0.0359278
0.00909511
0.108054
0.116472
0.000227296
0.105094
0.00324673
0.0976042
0.0710911
0.0912408
0.0763972
0.0074391
0.0475079
0.00543935
0.0509525
0.0193504
0.0796786
0.0467623
0.0156759
0.095186
0.0196027
0.096178
0.0372799
0.0111704
0.0583063
0.00840295
0.0627678
0.0440409
0.0156536
0.0517943
0.0136638
0.0424603
0.0093001
0.0108323
0.12019
0.0394773
0.108266
0.0475862
0.000795876
0.0487801
0.000195849
0.0441862
0.000100228
0.0346502
0.0384255
0.031972
0.0354904
0.125316
0.0307963
9.7085e-05
5.93924e-05
0.000157675
0.000364438
0.000254512
0.00437688
0.000219746
3.51144e-05
2.11235e-05
4.01159e-05
6.40672e-05
0.0123109
0.00939974
0.00746553
0.00967997
5.28565e-06
1.07288e-05
1.85673e-05
9.52246e-06
5.95291e-05
6.83137e-05
0.000115913
0.000100915
0.00393282
0.00635001
0.00410017
0.00257955
0.0108804
0.00883977
0.00551024
0.00692322
3.96502e-05
3.46559e-05
2.00578e-05
0.022268
0.0141142
0.0168202
0.0253827
2.89099e-05
2.6481e-06
0.00295621
0.000498473
4.47405e-05
0.0117013
0.00699054
0.000314213
2.53654e-05
0.0056128
0.00669412
0.0181862
0.018271
0.0259215
0.0265133
0.000359183
2.17217e-05
0.0035989
0.000248873
0.00290618
0.000181237
0.000215178
0.00423884
0.000297251
2.69249e-05
1.87463e-05
1.16537e-05
0.000281458
4.03517e-05
6.97274e-05
7.65482e-05
0.0074093
2.32921e-05
0.000464524
7.12039e-05
0.000122173
0.00212462
0.000107482
6.18727e-05
5.64341e-06
0.000169265
2.23326e-05
0.00113527
0.000858931
0.000130457
3.7475e-05
4.38304e-05
0.00576599
0.0173388
4.93693e-05
7.76335e-05
0.000766085
0.000952707
0.000349683
1.42613e-05
3.45168e-05
0.000211898
0.00153864
0.000808165
0.000233196
0.00481953
0.00249946
0.000149935
4.50041e-05
0.00207522
0.00163386
0.0121213
0.00105684
1.29467e-05
0.000861127
0.000761279
0.00845128
0.000126751
0.00142533
0.00103381
0.00790057
0.000692773
7.77163e-06
0.000528899
0.00280144
0.00170124
8.74824e-05
0.00213174
0.00131305
0.00038544
0.00698636
0.000742453
0.0124972
1.76281e-05
0.000920506
7.46739e-05
0.000957127
0.000651477
0.000321985
4.32113e-05
0.000627462
0.000408374
0.00019421
2.3061e-05
0.000934305
0.00165926
0.000220044
9.7066e-06
8.36677e-05
3.60724e-05
0.000565595
0.00234816
0.000361288
1.94143e-05
0.00325668
0.000140201
2.45973e-05
0.0104011
0.00324391
0.000584857
0.00411991
0.00833706
0.000131904
0.00114301
0.00153032
1.04597e-05
0.00057046
0.000356123
2.28038e-05
0.000475275
0.00605433
2.46898e-05
0.000400779
0.00507312
0.0213845
4.94695e-05
4.68923e-06
0.0156911
2.20099e-06
0.017331
0.0240527
3.92589e-05
0.00147288
2.98122e-05
0.00146876
0.000150961
0.000565804
0.0027159
0.000261281
0.0031986
0.00228944
6.61191e-05
8.39489e-05
0.00221846
0.00138922
0.00231495
4.98985e-05
0.00168191
0.0183387
1.2053e-06
0.00199953
0.0152405
0.00123865
0.011505
0.00103515
0.0136638
5.34816e-07
0.0043549
0.00342611
0.00245216
0.000590681
0.00506121
0.000434479
0.00544859
0.00350115
0.00126011
0.000217514
0.00178988
0.000355706
0.000333706
0.000204288
8.28191e-05
0.00359812
0.0055027
0.000136514
0.000862657
0.000223669
0.00126246
0.00350363
0.000110407
0.00526804
0.000183099
7.34262e-05
0.0043264
0.00140878
0.00551452
0.00216011
0.00398514
0.0019544
0.00314328
0.00129073
0.00330987
0.000904398
0.00240364
0.000837516
0.00246766
0.000571719
0.00825743
0.0121189
1.35499e-05
1.68486e-05
0.000533754
0.00177526
0.00989642
0.000633428
0.000124907
0.00776337
0.00030189
0.00012945
0.0111815
0.00049515
0.000112766
0.000191539
