# vtk DataFile Version 2.0
Unstructured Grid by M++
ASCII
DATASET UNSTRUCTURED_GRID
POINTS 1089 float
  6.250000   0.625000 0
  5.625000   0.625000 0
  1.250000   7.500000 0
  4.375000   3.750000 0
  0.625000   8.125000 0
  5.000000   4.375000 0
  8.750000   4.375000 0
  1.875000   8.125000 0
  4.375000   4.375000 0
  1.250000   8.125000 0
  2.500000   8.750000 0
  9.375000   5.000000 0
  5.000000   3.750000 0
  8.750000   8.125000 0
  8.750000   8.750000 0
  9.375000   4.375000 0
  2.500000   8.125000 0
  9.375000   8.750000 0
 10.000000   8.750000 0
  5.000000   3.125000 0
  1.875000   6.875000 0
  4.375000   6.875000 0
  3.750000   8.125000 0
  4.375000   8.125000 0
  7.500000   4.375000 0
  9.375000   0.625000 0
  4.375000   8.750000 0
  7.500000   5.000000 0
  3.750000   8.750000 0
  1.250000   8.750000 0
  4.375000   5.000000 0
  9.375000   1.250000 0
  3.750000   9.375000 0
  7.500000   5.625000 0
  4.375000   9.375000 0
  7.500000   6.250000 0
  4.375000  10.000000 0
  5.000000   1.875000 0
  5.000000   2.500000 0
  7.500000   6.875000 0
  5.625000   1.250000 0
  6.875000   6.875000 0
  5.625000   1.875000 0
  5.625000   2.500000 0
  6.875000   6.250000 0
  3.750000  10.000000 0
  8.750000   7.500000 0
  6.250000   7.500000 0
  6.250000   8.125000 0
  7.500000  10.000000 0
  1.875000   8.750000 0
  8.750000   5.000000 0
  5.000000   6.875000 0
  8.125000   3.125000 0
  6.250000  10.000000 0
  5.625000  10.000000 0
  8.125000   2.500000 0
  8.750000   1.250000 0
  6.250000   9.375000 0
  6.875000  10.000000 0
  1.875000   7.500000 0
  8.750000   3.750000 0
  7.500000   3.125000 0
  0.625000   6.875000 0
  5.625000   9.375000 0
  8.750000   0.625000 0
  6.250000   8.750000 0
  5.625000   7.500000 0
  8.125000   3.750000 0
  5.000000   7.500000 0
  4.375000   5.625000 0
  8.125000   5.625000 0
  1.250000   9.375000 0
  0.625000   7.500000 0
  7.500000   3.750000 0
  4.375000   7.500000 0
  3.750000   5.625000 0
  0.625000   9.375000 0
  6.875000   8.125000 0
  5.000000   8.750000 0
  8.125000   5.000000 0
  8.750000   6.875000 0
  3.750000   6.875000 0
  5.625000   8.750000 0
  1.250000   5.000000 0
  8.125000   1.250000 0
  9.375000   6.875000 0
  5.000000   9.375000 0
  7.500000   7.500000 0
  5.000000   8.125000 0
  8.125000   4.375000 0
  3.750000   6.250000 0
  0.625000  10.000000 0
 10.000000   8.125000 0
 10.000000   3.750000 0
  3.125000   7.500000 0
  6.875000   8.750000 0
  9.375000   7.500000 0
  5.625000   8.125000 0
  4.375000   6.250000 0
  6.875000   9.375000 0
  0.625000   8.750000 0
  7.500000   9.375000 0
  7.500000   8.750000 0
  7.500000   8.125000 0
  6.875000   7.500000 0
 10.000000   6.875000 0
  9.375000   8.125000 0
  9.375000   3.750000 0
  2.500000   7.500000 0
 10.000000   7.500000 0
  3.750000   7.500000 0
  5.000000  10.000000 0
  6.250000   6.875000 0
  1.250000   4.375000 0
  8.125000   0.625000 0
  7.500000   1.250000 0
  0.625000   5.000000 0
  5.625000   6.875000 0
  8.750000   3.125000 0
  8.750000   2.500000 0
  1.250000   6.875000 0
  3.125000   6.875000 0
 10.000000   3.125000 0
  2.500000   6.875000 0
  9.375000   3.125000 0
  8.125000   1.875000 0
  1.250000   5.625000 0
 10.000000  10.000000 0
  9.375000  10.000000 0
  9.375000   9.375000 0
 10.000000   9.375000 0
  8.750000  10.000000 0
  8.750000   9.375000 0
  8.750000   1.875000 0
  8.125000   6.875000 0
  8.125000   7.500000 0
  1.250000  10.000000 0
  8.125000   6.250000 0
  0.625000   0.625000 0
  9.375000   6.250000 0
  2.500000  10.000000 0
  8.750000   6.250000 0
  1.875000  10.000000 0
  8.750000   5.625000 0
  1.875000   9.375000 0
  9.375000   5.625000 0
  2.500000   9.375000 0
 10.000000   5.625000 0
  3.125000   9.375000 0
 10.000000   6.250000 0
  3.125000  10.000000 0
 10.000000   5.000000 0
  3.125000   8.750000 0
 10.000000   4.375000 0
  3.125000   8.125000 0
  8.125000   9.375000 0
  8.125000  10.000000 0
  8.125000   8.750000 0
  8.125000   8.125000 0
  7.500000   1.875000 0
  0.625000   5.625000 0
  7.500000   2.500000 0
  0.625000   6.250000 0
  9.375000   0.000000 0
  1.875000   1.875000 0
  8.750000  -1.875000 0
  5.000000  -6.250000 0
  4.375000  -6.250000 0
 -5.000000  -9.375000 0
 -5.625000  -6.875000 0
 -8.750000   5.625000 0
  5.625000  -5.000000 0
  5.000000  -2.500000 0
 -6.250000  -9.375000 0
 -6.875000  -6.875000 0
  3.125000   5.625000 0
 10.000000   1.875000 0
 -3.750000   9.375000 0
  3.750000   3.125000 0
 -3.125000   6.875000 0
  4.375000   0.625000 0
 -2.500000   4.375000 0
  6.250000   5.625000 0
 -0.625000   9.375000 0
 -7.500000 -10.000000 0
 -8.125000  -7.500000 0
  6.875000   3.125000 0
  0.000000   6.875000 0
 -6.875000   5.625000 0
 -4.375000  -4.375000 0
 -3.750000  -6.875000 0
 -6.875000   5.000000 0
 -5.000000  -2.500000 0
 -4.375000  -5.000000 0
 -3.750000  -7.500000 0
 -6.250000   5.000000 0
 -6.250000   5.625000 0
  3.125000  -8.125000 0
 -3.750000  -4.375000 0
 -5.625000   3.125000 0
  0.625000   1.250000 0
  7.500000  -2.500000 0
 -6.875000   6.250000 0
 -3.750000  -6.250000 0
 -6.250000   3.750000 0
  1.250000  -2.500000 0
 -5.625000   1.250000 0
 -7.500000   5.625000 0
 -5.000000  -4.375000 0
 -4.375000  -6.875000 0
 -5.625000  -1.875000 0
 -6.875000   3.125000 0
 -6.250000   0.625000 0
 -4.375000   1.875000 0
 -5.000000   4.375000 0
  9.375000  -6.250000 0
 10.000000  -8.750000 0
  6.875000   4.375000 0
  0.000000   8.125000 0
 -7.500000  -8.750000 0
 -6.250000   4.375000 0
 -7.500000   6.875000 0
 -3.750000  -8.125000 0
 -5.625000  -0.625000 0
 -4.375000  -5.625000 0
 -5.000000  -3.125000 0
 -6.875000   4.375000 0
-10.000000   7.500000 0
 -6.250000  -7.500000 0
 -5.625000 -10.000000 0
  4.375000  -3.125000 0
 -5.000000 -10.000000 0
 -5.625000  -7.500000 0
 -9.375000   7.500000 0
  5.000000  -3.125000 0
 -5.625000   5.000000 0
 -5.000000   2.500000 0
  8.750000  -5.625000 0
  1.250000   0.625000 0
  8.125000  -3.125000 0
  9.375000  -8.125000 0
 -5.625000   4.375000 0
  8.750000  -6.250000 0
 -5.625000  -8.125000 0
 -9.375000   6.875000 0
  5.000000  -3.750000 0
 -6.250000  -8.125000 0
-10.000000   6.875000 0
  3.750000  -1.250000 0
  3.750000   4.375000 0
 -3.125000   8.125000 0
  4.375000   1.875000 0
 -2.500000   5.625000 0
 -6.250000  -8.750000 0
  3.750000   3.750000 0
 -3.125000   7.500000 0
  4.375000   1.250000 0
 -2.500000   5.000000 0
  3.125000   6.250000 0
 10.000000   2.500000 0
 -3.750000  10.000000 0
 -5.625000  -8.750000 0
-10.000000   8.750000 0
 -9.375000   6.250000 0
  4.375000  -1.875000 0
  5.000000  -4.375000 0
 -9.375000   5.000000 0
 -2.500000   1.250000 0
 -7.500000  -2.500000 0
 -0.625000  -6.250000 0
 -6.875000  -5.000000 0
  0.000000  -8.750000 0
 -8.125000   0.000000 0
 -1.250000  -3.750000 0
 -8.750000   5.000000 0
 -1.875000   1.250000 0
 -8.125000   2.500000 0
 -1.250000  -1.250000 0
 -6.250000  -5.000000 0
  0.625000  -8.750000 0
  4.375000   3.125000 0
 -2.500000   6.875000 0
  5.000000   0.625000 0
 -1.875000   4.375000 0
 -5.625000  -9.375000 0
 -0.625000  -5.625000 0
 -7.500000  -1.875000 0
  0.000000  -8.125000 0
 -6.875000  -4.375000 0
 -6.250000  -6.875000 0
-10.000000   8.125000 0
 -1.875000  -0.625000 0
 -8.750000   3.125000 0
 -2.500000   1.875000 0
 -9.375000   5.625000 0
  4.375000  -2.500000 0
 -8.125000   5.625000 0
 -6.875000   0.625000 0
 -7.500000   3.125000 0
 -7.500000  -5.625000 0
 -6.875000  -8.125000 0
 -8.125000  -3.125000 0
 -8.750000   4.375000 0
 -1.875000   0.625000 0
 -6.875000  -3.125000 0
  0.000000  -6.875000 0
 -6.250000  -5.625000 0
  0.625000  -9.375000 0
 -9.375000   4.375000 0
 -2.500000   0.625000 0
 -6.875000  -5.625000 0
  0.000000  -9.375000 0
 -8.125000  -0.625000 0
 -1.250000  -4.375000 0
 -8.750000   1.875000 0
 -1.875000  -1.875000 0
 -7.500000  -3.125000 0
 -0.625000  -6.875000 0
 -5.000000  -8.750000 0
 -1.875000   1.875000 0
  5.000000  -1.875000 0
  5.625000  -4.375000 0
 -4.375000 -10.000000 0
 -5.000000  -7.500000 0
 -1.875000   3.125000 0
  5.000000  -0.625000 0
  6.250000  -5.625000 0
  5.625000  -3.125000 0
 -5.000000  -8.125000 0
 -1.875000   2.500000 0
  5.000000  -1.250000 0
  5.625000  -3.750000 0
  3.750000   0.000000 0
 -3.125000   3.750000 0
  2.500000   5.000000 0
 -4.375000   8.750000 0
  3.125000   2.500000 0
 -3.750000   6.250000 0
 -8.750000  -2.500000 0
 -8.125000  -5.000000 0
 -9.375000   0.000000 0
 -7.500000  -7.500000 0
-10.000000   2.500000 0
  0.625000   3.125000 0
  7.500000  -0.625000 0
 -6.250000   6.875000 0
 -3.750000 -10.000000 0
 -4.375000  -7.500000 0
  6.875000  -5.625000 0
 -8.125000   3.125000 0
 -1.250000  -0.625000 0
 -6.250000  -4.375000 0
  0.625000  -8.125000 0
 -3.750000   3.750000 0
  1.875000   5.000000 0
 -5.000000   8.750000 0
  2.500000   2.500000 0
 -4.375000   6.250000 0
 -9.375000  -1.875000 0
-10.000000   0.625000 0
 -5.625000   8.125000 0
 -5.000000   5.625000 0
 -4.375000  -8.125000 0
  6.875000  -6.250000 0
  6.250000  -3.750000 0
  3.750000   0.625000 0
 -3.125000   4.375000 0
  9.375000   1.875000 0
  2.500000   5.625000 0
 -4.375000   9.375000 0
  3.125000   3.125000 0
 -3.750000   6.875000 0
 -8.750000  -1.875000 0
 -6.875000  -9.375000 0
  0.000000  10.000000 0
 -7.500000  -6.875000 0
 -8.125000  -4.375000 0
 -9.375000   0.625000 0
 -7.500000  -6.250000 0
 -8.750000  -1.250000 0
 -8.125000  -3.750000 0
 -6.875000  -8.750000 0
 -9.375000   8.750000 0
  9.375000  -8.750000 0
 -7.500000  -4.375000 0
 -0.625000  -8.125000 0
-10.000000   5.625000 0
 -3.125000   1.875000 0
 -9.375000   3.125000 0
 -2.500000  -0.625000 0
 -8.750000   0.625000 0
 -1.875000  -3.125000 0
 -8.125000  -1.875000 0
 -1.250000  -5.625000 0
 -8.125000  -5.625000 0
 -9.375000  -0.625000 0
 -8.750000  -3.125000 0
-10.000000   1.875000 0
 -5.625000   8.750000 0
 -5.000000   6.250000 0
  1.875000   5.625000 0
 -5.000000   9.375000 0
  3.125000   0.625000 0
 -3.750000   4.375000 0
  2.500000   3.125000 0
 -4.375000   6.875000 0
  1.875000   6.250000 0
 -5.000000  10.000000 0
  2.500000   3.750000 0
 -4.375000   7.500000 0
  3.125000   1.250000 0
[...]
CELL_DATA 1024
SCALARS scalar_value float 1
LOOKUP_TABLE default
0.0338319
0.0402968
0.0538392
0.0443845
0.000260727
0.000286
0.000224647
0.000584011
0.000183537
0.0200183
0.0395331
0.0202115
0.0310736
0.0262213
0.00518212
0.00572641
0.00363546
0.00330523
0.0771334
0.00381897
0.000216265
0.00604802
0.000258339
0.00610949
0.0158352
0.00382916
0.0125429
0.0213187
0.0166815
0.0210606
0.0269589
0.0157848
0.0269063
0.0233601
0.0144283
0.00938388
0.0127113
0.0162398
0.0120126
0.0023773
0.00367943
1.23394e-05
0.0630786
0.00444451
7.17183e-06
0.0629352
0.00622243
0.000454105
0.00939766
0.00248708
0.00792041
0.0480283
0.0117873
0.00140433
0.0502159
0.038629
5.06326e-05
0.0328625
3.29021e-05
0.00187603
0.0622411
0.00680895
0.0437641
7.47342e-05
0.0366812
0.000105609
0.00070991
0.0280625
0.0453487
0.00030541
0.000438298
0.000978374
0.0382027
0.000142591
0.00100232
0.00181753
0.00127491
0.000686295
0.0766631
0.000286048
0.0103445
0.000491224
0.028256
0.03551
0.0299751
0.0423412
0.00877428
0.000398336
0.0192186
0.0194935
0.0360801
0.0255995
0.0473095
0.0202524
0.000780246
0.0272832
0.0332477
0.0138372
0.0637938
0.00612601
6.44096e-05
0.0214339
0.0744324
0.00813193
0.00020323
0.0218626
0.0338062
0.0354362
0.0470753
0.00179633
0.0406773
0.0130795
0.000295404
0.072621
0.000355341
0.00928294
0.00324753
0.0100892
0.0546816
0.000304083
0.0659397
0.0145232
0.0498535
0.00311862
0.0224394
0.0323683
0.0274615
0.0599075
0.00816632
0.0733983
2.0541e-05
0.0125415
0.0155579
0.000326186
0.0653925
0.0549529
0.00286973
0.0485677
0.0189381
3.93917e-05
0.00875489
0.0199427
0.0498986
0.00428738
0.0534771
0.0477094
0.0055558
0.0599152
0.0118988
0.000129967
0.090292
0.0777808
0.0138916
0.00223454
0.00015316
0.011653
0.014764
0.0871814
0.0114398
0.00231669
0.0020519
0.016201
0.000101487
0.016092
0.100539
0.0576184
0.0170444
0.0265784
0.023887
0.102657
0.104516
0.0912564
0.00904033
0.00228341
0.0902362
0.000909928
0.000574728
0.00406066
0.0139995
0.000746215
0.00301881
0.00119655
0.00467956
0.0168197
0.0391629
0.00112986
0.0295201
0.000964283
0.0850045
0.00338867
0.0015007
0.0304062
0.00215686
0.000925025
0.0135736
0.000550056
0.00911293
0.0960956
0.0767547
0.00160213
0.0862615
0.00289214
0.0126258
0.00109267
0.00140755
0.00187599
0.00213741
0.00685067
0.0187681
0.0028725
0.00366117
0.00954323
0.0380536
0.00212374
0.00545009
0.00590231
0.00189922
0.0050076
0.0350841
0.00333494
0.00701888
0.00846596
0.000628514
0.00128388
0.000599548
0.000220956
0.000495532
0.00238732
0.0745708
0.00404497
0.00480622
0.00130568
0.00964795
0.000675767
0.0075316
0.00641172
0.000683355
0.066712
0.000650526
0.0559572
0.0112694
0.00122669
0.023575
0.0195515
0.0174568
0.0181562
0.0198899
0.0252109
0.0268587
0.0272391
0.00131542
0.00791655
0.00521941
0.0062211
0.00125344
0.00447514
1.52916e-05
0.00626155
0.00347096
0.00385537
0.00726501
1.07896e-07
2.06817e-05
5.48676e-08
1.40198e-08
2.99207e-08
0.000366494
0.000253826
0.000376374
0.000551834
1.36244e-07
2.47297e-07
4.75309e-07
0.00114178
0.00073439
0.000522169
0.000799032
8.60367e-06
6.49476e-09
2.76421e-08
1.39235e-08
3.00245e-09
0.000166962
0.000237753
0.00406032
0.00417285
0.00794301
6.79183e-06
1.34305e-05
9.1994e-06
4.703e-06
0.000816832
0.00196832
0.00181118
5.06765e-07
2.29608e-07
0.000209721
7.90724e-07
0.000410848
1.33125e-06
7.96449e-07
0.00101379
5.23978e-06
6.28149e-08
3.97194e-07
7.55394e-07
2.0908e-07
4.10724e-08
0.00100247
1.00826e-07
2.32097e-06
2.29634e-05
0.000135045
2.27635e-05
4.61744e-05
3.38032e-06
1.2398e-05
0.00114288
0.000471176
1.74663e-05
0.00295315
3.54842e-05
0.0051108
0.00839363
4.57679e-05
6.42176e-06
4.45083e-07
0.000235068
4.61231e-05
0.00608642
1.01499e-05
0.00967016
0.000147572
0.000571301
2.26644e-06
9.32552e-05
2.13476e-06
0.00208818
0.000352655
1.62632e-06
3.50025e-06
1.14811e-05
5.26991e-06
0.00426212
6.11334e-06
1.71604e-05
1.75064e-06
1.3586e-06
2.54309e-05
3.09446e-06
0.000682339
7.99484e-06
7.47194e-08
1.55134e-05
0.000919357
8.01427e-05
9.54613e-06
0.000107722
5.05368e-07
0.000467978
5.94268e-06
5.3369e-05
0.000419476
2.39581e-05
0.000698169
3.1734e-06
2.37546e-06
9.56213e-07
1.35512e-05
7.05895e-05
0.000592093
7.79496e-05
5.18565e-05
8.62827e-06
3.57382e-05
0.000322097
0.00132907
6.41171e-06
4.40162e-06
0.000253581
3.94379e-06
3.54152e-05
0.00024532
0.00223967
0.00160951
3.03721e-05
3.92663e-06
3.29919e-05
0.000181423
0.00102171
2.92125e-05
0.000118412
3.5908e-07
0.00286915
4.17156e-05
5.08097e-05
6.42675e-06
5.115e-05
0.000337588
0.00141448
9.29579e-05
2.03663e-05
0.000302996
3.64779e-06
0.000213761
2.36091e-06
0.000138667
1.38066e-06
0.000204956
2.21321e-06
0.000152037
1.32767e-06
0.000549334
0.00238483
1.3107e-05
0.00159109
8.62726e-06
5.38532e-06
0.000441995
2.30761e-06
3.32124e-06
1.59004e-06
1.09516e-06
0.00308709
2.80691e-05
0.00197592
1.68898e-07
5.85286e-05
7.36422e-07
9.70285e-05
0.000176038
8.70539e-07
2.59055e-07
6.86874e-05
1.29147e-07
4.37065e-05
6.27358e-05
9.57485e-06
1.91525e-05
0.00397632
2.64748e-05
0.00296649
0.000422915
4.85327e-05
0.00183864
0.000294405
3.39728e-05
0.000168957
0.00136077
0.00018768
2.17058e-05
0.000253659
0.00213283
0.000265204
3.08331e-05
0.000655667
8.60148e-06
0.000937185
1.24161e-05
0.000166552
1.95208e-05
0.000173506
0.00148394
0.000119053
1.37107e-05
0.000117075
0.000971315
9.71566e-05
3.6885e-05
6.76964e-05
3.7504e-05
2.9245e-05
2.83446e-07
7.27823e-05
0.000334753
0.00229518
2.8812e-05
0.0014062
1.83961e-05
0.000172434
0.000117534
0.000287965
0.000671283
1.11333e-06
0.000293313
5.59665e-07
0.000146191
5.23537e-05
7.55776e-05
0.000115744
7.91572e-05
0.000192051
2.34455e-05
4.67299e-06
0.00105842
1.58318e-05
7.78568e-05
1.02128e-05
7.21533e-05
0.000447969
0.000124712
1.5092e-05
0.000111166
0.000807146
4.88498e-05
0.00822111
8.99755e-05
0.00011291
0.00456937
6.58778e-05
0.000659264
0.000450566
0.000569638
6.55812e-05
0.068243
0.0622624
0.0455492
0.052348
0.0133403
0.0146211
0.0100116
0.00900446
0.103317
0.108067
0.116614
0.110674
0.0359039
0.117084
0.0254231
0.108071
0.0430325
0.103558
0.021479
0.112393
0.0136699
0.118319
0.0185336
0.122948
0.027857
0.00644997
0.00961205
0.0158197
0.0111273
0.00135531
0.00459923
0.00290478
0.000794519
0.0857734
0.0823682
0.0943421
0.0998809
0.0377676
0.0296893
0.120565
0.023941
0.0104899
0.0294678
0.000846681
0.0246251
0.0588761
0.0138247
0.046795
0.0266024
0.0417457
0.0559992
0.0545283
0.00149264
0.0297859
0.00747716
0.0293822
0.0219569
0.0164609
0.0495765
0.0537581
0.104728
0.00175755
0.0484854
0.0219999
0.109944
0.0380989
0.0199404
0.0971846
0.0978357
0.093529
0.000448573
0.0861082
0.0271614
0.0374028
0.121837
0.031673
0.0761151
0.0290572
0.0115497
0.0225936
0.0855454
0.00174912
0.0411278
0.0431764
0.0446621
0.0207091
0.0191284
0.119601
0.0287111
0.0148339
0.0345939
0.122321
0.0287049
0.0213537
0.0467323
0.11458
0.0137073
0.0643201
0.0953296
0.101581
0.0844906
0.1119
0.00766243
0.0214556
0.0324286
0.0564773
0.00449972
0.00896735
0.0527677
0.00480367
0.0717638
0.00940335
0.11536
0.00295373
0.0593562
0.0755831
0.0939143
0.00610923
0.0684723
0.0071043
0.0600153
0.0227294
0.0225489
0.0153577
0.0104759
0.015301
0.00488088
0.0357058
0.043203
0.0354446
0.0452544
0.00299807
0.0557342
0.0406378
0.00986384
0.0410301
0.0547951
0.0417739
0.00253787
0.0374207
0.0317053
0.0934506
0.118654
0.112535
0.00413583
0.0473908
0.0322006
0.0584215
0.0313775
0.0807616
0.0844987
0.0968855
0.053175
0.0927172
0.0224064
0.00528039
0.0138526
0.0107575
0.0181361
0.0106051
0.00761565
0.0813844
0.074254
0.073811
0.085316
0.101863
0.0656832
0.0998193
0.0273496
0.0388131
0.0204734
0.0513987
0.0189536
0.0251652
0.0170077
0.109912
0.0644644
0.00789873
0.070417
0.0917595
0.00222309
0.103518
0.00696341
0.0428735
0.0147372
0.0784466
0.0510856
0.016976
0.0647218
0.0668918
0.0433378
0.0124592
0.0594
0.0108796
0.0721867
0.0850169
0.0282855
0.0485752
0.0193385
0.082746
0.0373411
0.0531235
0.0351517
0.064718
0.0264024
0.0584552
0.0100625
0.109093
0.111379
0.000307481
0.0988883
0.00350032
0.0967442
0.0683619
0.0846618
0.0700301
0.0108039
0.0701664
0.00764978
0.0723507
0.0357557
0.0695471
0.0690038
0.0304757
0.0839214
0.0366736
0.0804812
0.055693
0.0157355
0.0820909
0.0114734
0.0849786
0.0679766
0.0235256
0.0761767
0.0198713
0.0654845
0.013958
0.0168165
0.12296
0.0452682
0.114382
0.0558034
0.00102053
0.0628345
0.000244256
0.0553903
0.000128445
0.0452419
0.0516363
0.0477692
0.0557527
0.124852
0.0345443
0.000360624
0.000237413
0.000542065
0.00113172
0.000806383
0.0105841
0.000733817
0.000135506
8.02959e-05
0.000147961
0.000239305
0.0252212
0.0203091
0.0166627
0.0205263
2.12651e-05
4.19796e-05
7.39012e-05
3.90329e-05
0.000248393
0.000281153
0.000450406
0.000396556
0.00768327
0.0110912
0.0069835
0.00497669
0.0197827
0.0156935
0.0108067
0.0137507
0.000172117
0.00015289
9.31145e-05
0.0324237
0.0226586
0.0280209
0.0388624
0.000130015
9.70252e-06
0.00771042
0.00160122
0.000189328
0.0150116
0.0159392
0.00105164
0.000112082
0.0131921
0.00994111
0.031488
0.0328866
0.0435278
0.042561
0.00115629
9.93153e-05
0.00915093
0.000867188
0.00762353
0.000659205
0.000689448
0.0104965
0.00103356
0.000108782
7.93987e-05
4.03753e-05
0.000970123
0.000167093
0.000238368
0.000306751
0.0162254
7.83823e-05
0.00149279
0.000283273
0.000465497
0.00503017
0.000407774
0.000244152
2.01142e-05
0.000623983
9.59694e-05
0.00339672
0.00255413
0.000498712
0.000132085
0.000183471
0.0132669
0.0238977
0.000192886
0.000313402
0.00235643
0.00249689
0.00119663
5.94664e-05
0.000141286
0.000770955
0.0039575
0.00227237
0.000812909
0.0116189
0.00671283
0.000544113
0.00014698
0.00570053
0.00353356
0.0226944
0.00282339
6.28784e-05
0.00257444
0.0022754
0.0186666
0.000488753
0.00412052
0.00248467
0.0160169
0.00191949
3.98687e-05
0.00169459
0.0066444
0.00482449
0.000329802
0.00527013
0.00339438
0.0012498
0.0158541
0.00234045
0.0241606
8.31992e-05
0.00276715
0.000304046
0.00290825
0.00172723
0.00110329
0.000185034
0.00200026
0.00118681
0.000709802
0.000106073
0.00283515
0.00465157
0.000799423
3.6253e-05
0.00033389
0.000154546
0.00175176
0.00627036
0.00123902
7.04741e-05
0.00834361
0.000523823
0.00010718
0.0161389
0.00824453
0.00188851
0.0102002
0.0173353
0.000506055
0.00335947
0.00365888
5.21295e-05
0.00183143
0.00110234
0.000103937
0.00157542
0.0141558
0.000110719
0.00133741
0.0122133
0.0390744
0.000210032
1.80035e-05
0.0304747
8.67961e-06
0.0324153
0.0421682
0.000170253
0.00419484
0.000132544
0.0041286
0.000463112
0.00168928
0.00641441
0.000775683
0.00760271
0.00611519
0.000269149
0.000265849
0.00574823
0.00386897
0.00607928
0.000208048
0.00431711
0.0348692
4.53665e-06
0.00513852
0.0301061
0.00343612
0.0240215
0.00288
0.0275306
2.06664e-06
0.00944095
0.00739801
0.00531783
0.00168868
0.0111133
0.00124686
0.012193
0.0084327
0.00359023
0.000790518
0.00487702
0.00122516
0.00115525
0.000743082
0.000322518
0.00882327
0.0125989
0.000494703
0.0024799
0.000751639
0.00348798
0.00877392
0.000420186
0.0123692
0.000649182
0.000262413
0.0102377
0.00407535
0.0124403
0.00588162
0.00923721
0.0054307
0.00762745
0.00379729
0.00821496
0.00277738
0.00610013
0.00260607
0.00642057
0.00186128
0.0176578
0.0242223
6.57695e-05
7.9868e-05
0.0017538
0.00470503
0.0211525
0.00190512
0.000413663
0.0170971
0.000993914
0.000447583
0.023113
0.00150898
0.00040693
0.000666396
