# vtk DataFile Version 2.0
Unstructured Grid by M++
ASCII
DATASET UNSTRUCTURED_GRID
POINTS 1089 float
  6.250000   0.625000 0
  5.625000   0.625000 0
  1.250000   7.500000 0
  4.375000   3.750000 0
  0.625000   8.125000 0
  5.000000   4.375000 0
  8.750000   4.375000 0
  1.875000   8.125000 0
  4.375000   4.375000 0
  1.250000   8.125000 0
  2.500000   8.750000 0
  9.375000   5.000000 0
  5.000000   3.750000 0
  8.750000   8.125000 0
  8.750000   8.750000 0
  9.375000   4.375000 0
  2.500000   8.125000 0
  9.375000   8.750000 0
 10.000000   8.750000 0
  5.000000   3.125000 0
  1.875000   6.875000 0
  4.375000   6.875000 0
  3.750000   8.125000 0
  4.375000   8.125000 0
  7.500000   4.375000 0
  9.375000   0.625000 0
  4.375000   8.750000 0
  7.500000   5.000000 0
  3.750000   8.750000 0
  1.250000   8.750000 0
  4.375000   5.000000 0
  9.375000   1.250000 0
  3.750000   9.375000 0
  7.500000   5.625000 0
  4.375000   9.375000 0
  7.500000   6.250000 0
  4.375000  10.000000 0
  5.000000   1.875000 0
  5.000000   2.500000 0
  7.500000   6.875000 0
  5.625000   1.250000 0
  6.875000   6.875000 0
  5.625000   1.875000 0
  5.625000   2.500000 0
  6.875000   6.250000 0
  3.750000  10.000000 0
  8.750000   7.500000 0
  6.250000   7.500000 0
  6.250000   8.125000 0
  7.500000  10.000000 0
  1.875000   8.750000 0
  8.750000   5.000000 0
  5.000000   6.875000 0
  8.125000   3.125000 0
  6.250000  10.000000 0
  5.625000  10.000000 0
  8.125000   2.500000 0
  8.750000   1.250000 0
  6.250000   9.375000 0
  6.875000  10.000000 0
  1.875000   7.500000 0
  8.750000   3.750000 0
  7.500000   3.125000 0
  0.625000   6.875000 0
  5.625000   9.375000 0
  8.750000   0.625000 0
  6.250000   8.750000 0
  5.625000   7.500000 0
  8.125000   3.750000 0
  5.000000   7.500000 0
  4.375000   5.625000 0
  8.125000   5.625000 0
  1.250000   9.375000 0
  0.625000   7.500000 0
  7.500000   3.750000 0
  4.375000   7.500000 0
  3.750000   5.625000 0
  0.625000   9.375000 0
  6.875000   8.125000 0
  5.000000   8.750000 0
  8.125000   5.000000 0
  8.750000   6.875000 0
  3.750000   6.875000 0
  5.625000   8.750000 0
  1.250000   5.000000 0
  8.125000   1.250000 0
  9.375000   6.875000 0
  5.000000   9.375000 0
  7.500000   7.500000 0
  5.000000   8.125000 0
  8.125000   4.375000 0
  3.750000   6.250000 0
  0.625000  10.000000 0
 10.000000   8.125000 0
 10.000000   3.750000 0
  3.125000   7.500000 0
  6.875000   8.750000 0
  9.375000   7.500000 0
  5.625000   8.125000 0
  4.375000   6.250000 0
  6.875000   9.375000 0
  0.625000   8.750000 0
  7.500000   9.375000 0
  7.500000   8.750000 0
  7.500000   8.125000 0
  6.875000   7.500000 0
 10.000000   6.875000 0
  9.375000   8.125000 0
  9.375000   3.750000 0
  2.500000   7.500000 0
 10.000000   7.500000 0
  3.750000   7.500000 0
  5.000000  10.000000 0
  6.250000   6.875000 0
  1.250000   4.375000 0
  8.125000   0.625000 0
  7.500000   1.250000 0
  0.625000   5.000000 0
  5.625000   6.875000 0
  8.750000   3.125000 0
  8.750000   2.500000 0
  1.250000   6.875000 0
  3.125000   6.875000 0
 10.000000   3.125000 0
  2.500000   6.875000 0
  9.375000   3.125000 0
  8.125000   1.875000 0
  1.250000   5.625000 0
 10.000000  10.000000 0
  9.375000  10.000000 0
  9.375000   9.375000 0
 10.000000   9.375000 0
  8.750000  10.000000 0
  8.750000   9.375000 0
  8.750000   1.875000 0
  8.125000   6.875000 0
  8.125000   7.500000 0
  1.250000  10.000000 0
  8.125000   6.250000 0
  0.625000   0.625000 0
  9.375000   6.250000 0
  2.500000  10.000000 0
  8.750000   6.250000 0
  1.875000  10.000000 0
  8.750000   5.625000 0
  1.875000   9.375000 0
  9.375000   5.625000 0
  2.500000   9.375000 0
 10.000000   5.625000 0
  3.125000   9.375000 0
 10.000000   6.250000 0
  3.125000  10.000000 0
 10.000000   5.000000 0
  3.125000   8.750000 0
 10.000000   4.375000 0
  3.125000   8.125000 0
  8.125000   9.375000 0
  8.125000  10.000000 0
  8.125000   8.750000 0
  8.125000   8.125000 0
  7.500000   1.875000 0
  0.625000   5.625000 0
  7.500000   2.500000 0
  0.625000   6.250000 0
  9.375000   0.000000 0
  1.875000   1.875000 0
  8.750000  -1.875000 0
  5.000000  -6.250000 0
  4.375000  -6.250000 0
 -5.000000  -9.375000 0
 -5.625000  -6.875000 0
 -8.750000   5.625000 0
  5.625000  -5.000000 0
  5.000000  -2.500000 0
 -6.250000  -9.375000 0
 -6.875000  -6.875000 0
  3.125000   5.625000 0
 10.000000   1.875000 0
 -3.750000   9.375000 0
  3.750000   3.125000 0
 -3.125000   6.875000 0
  4.375000   0.625000 0
 -2.500000   4.375000 0
  6.250000   5.625000 0
 -0.625000   9.375000 0
 -7.500000 -10.000000 0
 -8.125000  -7.500000 0
  6.875000   3.125000 0
  0.000000   6.875000 0
 -6.875000   5.625000 0
 -4.375000  -4.375000 0
 -3.750000  -6.875000 0
 -6.875000   5.000000 0
 -5.000000  -2.500000 0
 -4.375000  -5.000000 0
 -3.750000  -7.500000 0
 -6.250000   5.000000 0
 -6.250000   5.625000 0
  3.125000  -8.125000 0
 -3.750000  -4.375000 0
 -5.625000   3.125000 0
  0.625000   1.250000 0
  7.500000  -2.500000 0
 -6.875000   6.250000 0
 -3.750000  -6.250000 0
 -6.250000   3.750000 0
  1.250000  -2.500000 0
 -5.625000   1.250000 0
 -7.500000   5.625000 0
 -5.000000  -4.375000 0
 -4.375000  -6.875000 0
 -5.625000  -1.875000 0
 -6.875000   3.125000 0
 -6.250000   0.625000 0
 -4.375000   1.875000 0
 -5.000000   4.375000 0
  9.375000  -6.250000 0
 10.000000  -8.750000 0
  6.875000   4.375000 0
  0.000000   8.125000 0
 -7.500000  -8.750000 0
 -6.250000   4.375000 0
 -7.500000   6.875000 0
 -3.750000  -8.125000 0
 -5.625000  -0.625000 0
 -4.375000  -5.625000 0
 -5.000000  -3.125000 0
 -6.875000   4.375000 0
-10.000000   7.500000 0
 -6.250000  -7.500000 0
 -5.625000 -10.000000 0
  4.375000  -3.125000 0
 -5.000000 -10.000000 0
 -5.625000  -7.500000 0
 -9.375000   7.500000 0
  5.000000  -3.125000 0
 -5.625000   5.000000 0
 -5.000000   2.500000 0
  8.750000  -5.625000 0
  1.250000   0.625000 0
  8.125000  -3.125000 0
  9.375000  -8.125000 0
 -5.625000   4.375000 0
  8.750000  -6.250000 0
 -5.625000  -8.125000 0
 -9.375000   6.875000 0
  5.000000  -3.750000 0
 -6.250000  -8.125000 0
-10.000000   6.875000 0
  3.750000  -1.250000 0
  3.750000   4.375000 0
 -3.125000   8.125000 0
  4.375000   1.875000 0
 -2.500000   5.625000 0
 -6.250000  -8.750000 0
  3.750000   3.750000 0
 -3.125000   7.500000 0
  4.375000   1.250000 0
 -2.500000   5.000000 0
  3.125000   6.250000 0
 10.000000   2.500000 0
 -3.750000  10.000000 0
 -5.625000  -8.750000 0
-10.000000   8.750000 0
 -9.375000   6.250000 0
  4.375000  -1.875000 0
  5.000000  -4.375000 0
 -9.375000   5.000000 0
 -2.500000   1.250000 0
 -7.500000  -2.500000 0
 -0.625000  -6.250000 0
 -6.875000  -5.000000 0
  0.000000  -8.750000 0
 -8.125000   0.000000 0
 -1.250000  -3.750000 0
 -8.750000   5.000000 0
 -1.875000   1.250000 0
 -8.125000   2.500000 0
 -1.250000  -1.250000 0
 -6.250000  -5.000000 0
  0.625000  -8.750000 0
  4.375000   3.125000 0
 -2.500000   6.875000 0
  5.000000   0.625000 0
 -1.875000   4.375000 0
 -5.625000  -9.375000 0
 -0.625000  -5.625000 0
 -7.500000  -1.875000 0
  0.000000  -8.125000 0
 -6.875000  -4.375000 0
 -6.250000  -6.875000 0
-10.000000   8.125000 0
 -1.875000  -0.625000 0
 -8.750000   3.125000 0
 -2.500000   1.875000 0
 -9.375000   5.625000 0
  4.375000  -2.500000 0
 -8.125000   5.625000 0
 -6.875000   0.625000 0
 -7.500000   3.125000 0
 -7.500000  -5.625000 0
 -6.875000  -8.125000 0
 -8.125000  -3.125000 0
 -8.750000   4.375000 0
 -1.875000   0.625000 0
 -6.875000  -3.125000 0
  0.000000  -6.875000 0
 -6.250000  -5.625000 0
  0.625000  -9.375000 0
 -9.375000   4.375000 0
 -2.500000   0.625000 0
 -6.875000  -5.625000 0
  0.000000  -9.375000 0
 -8.125000  -0.625000 0
 -1.250000  -4.375000 0
 -8.750000   1.875000 0
 -1.875000  -1.875000 0
 -7.500000  -3.125000 0
 -0.625000  -6.875000 0
 -5.000000  -8.750000 0
 -1.875000   1.875000 0
  5.000000  -1.875000 0
  5.625000  -4.375000 0
 -4.375000 -10.000000 0
 -5.000000  -7.500000 0
 -1.875000   3.125000 0
  5.000000  -0.625000 0
  6.250000  -5.625000 0
  5.625000  -3.125000 0
 -5.000000  -8.125000 0
 -1.875000   2.500000 0
  5.000000  -1.250000 0
  5.625000  -3.750000 0
  3.750000   0.000000 0
 -3.125000   3.750000 0
  2.500000   5.000000 0
 -4.375000   8.750000 0
  3.125000   2.500000 0
 -3.750000   6.250000 0
 -8.750000  -2.500000 0
 -8.125000  -5.000000 0
 -9.375000   0.000000 0
 -7.500000  -7.500000 0
-10.000000   2.500000 0
  0.625000   3.125000 0
  7.500000  -0.625000 0
 -6.250000   6.875000 0
 -3.750000 -10.000000 0
 -4.375000  -7.500000 0
  6.875000  -5.625000 0
 -8.125000   3.125000 0
 -1.250000  -0.625000 0
 -6.250000  -4.375000 0
  0.625000  -8.125000 0
 -3.750000   3.750000 0
  1.875000   5.000000 0
 -5.000000   8.750000 0
  2.500000   2.500000 0
 -4.375000   6.250000 0
 -9.375000  -1.875000 0
-10.000000   0.625000 0
 -5.625000   8.125000 0
 -5.000000   5.625000 0
 -4.375000  -8.125000 0
  6.875000  -6.250000 0
  6.250000  -3.750000 0
  3.750000   0.625000 0
 -3.125000   4.375000 0
  9.375000   1.875000 0
  2.500000   5.625000 0
 -4.375000   9.375000 0
  3.125000   3.125000 0
 -3.750000   6.875000 0
 -8.750000  -1.875000 0
 -6.875000  -9.375000 0
  0.000000  10.000000 0
 -7.500000  -6.875000 0
 -8.125000  -4.375000 0
 -9.375000   0.625000 0
 -7.500000  -6.250000 0
 -8.750000  -1.250000 0
 -8.125000  -3.750000 0
 -6.875000  -8.750000 0
 -9.375000   8.750000 0
  9.375000  -8.750000 0
 -7.500000  -4.375000 0
 -0.625000  -8.125000 0
-10.000000   5.625000 0
 -3.125000   1.875000 0
 -9.375000   3.125000 0
 -2.500000  -0.625000 0
 -8.750000   0.625000 0
 -1.875000  -3.125000 0
 -8.125000  -1.875000 0
 -1.250000  -5.625000 0
 -8.125000  -5.625000 0
 -9.375000  -0.625000 0
 -8.750000  -3.125000 0
-10.000000   1.875000 0
 -5.625000   8.750000 0
 -5.000000   6.250000 0
  1.875000   5.625000 0
 -5.000000   9.375000 0
  3.125000   0.625000 0
 -3.750000   4.375000 0
  2.500000   3.125000 0
 -4.375000   6.875000 0
  1.875000   6.250000 0
 -5.000000  10.000000 0
  2.500000   3.750000 0
 -4.375000   7.500000 0
  3.125000   1.250000 0
[...]
CELL_DATA 1024
SCALARS scalar_value float 1
LOOKUP_TABLE default
0.010488
0.0155301
0.0196313
0.0133073
1.8462e-05
1.97589e-05
1.6347e-05
4.61599e-05
1.37466e-05
0.00311592
0.0105635
0.00316116
0.0081398
0.00622997
0.000547067
0.00061413
0.000351225
0.000313853
0.0246904
0.000375798
1.48282e-05
0.000659168
1.72879e-05
0.000676712
0.00279408
0.00038405
0.00221616
0.00458824
0.00325147
0.00412104
0.00585613
0.00753011
0.011184
0.00759712
0.00517172
0.00182644
0.00247318
0.00347149
0.00255706
0.000220281
0.000379364
1.14433e-06
0.0173823
0.00060608
6.85626e-07
0.0168949
0.000822542
3.23925e-05
0.0011591
0.000306233
0.000938134
0.0120166
0.0015816
0.000160008
0.0163466
0.00860319
4.28245e-06
0.00722129
2.86982e-06
0.000208943
0.0209525
0.000796127
0.00989314
6.12941e-06
0.00739712
8.40022e-06
7.53414e-05
0.00499635
0.0133968
3.04074e-05
4.24409e-05
0.00010121
0.00777055
1.10028e-05
0.000116885
0.000228328
0.000163488
8.19307e-05
0.0236509
1.91267e-05
0.0023307
5.34954e-05
0.0050264
0.010233
0.00594258
0.0103682
0.00105379
3.33392e-05
0.00339186
0.00507779
0.00744737
0.00503824
0.0114085
0.00358665
7.14942e-05
0.00568826
0.0080158
0.00189721
0.0283709
0.000968244
6.24544e-06
0.00449815
0.0401408
0.00151751
2.08059e-05
0.0065998
0.00675797
0.00880924
0.0227446
0.000152421
0.00997842
0.00177479
2.00012e-05
0.0216505
2.60453e-05
0.00113013
0.000392197
0.00133906
0.0139831
2.62065e-05
0.0190478
0.00221299
0.0118313
0.000372655
0.00396608
0.00671747
0.00694681
0.0156849
0.00107578
0.0244479
1.84753e-06
0.003506
0.00332253
3.64527e-05
0.0227393
0.0331615
0.000268468
0.01328
0.00292969
3.93295e-06
0.00133537
0.00468284
0.0116495
0.00049799
0.0155703
0.0109576
0.00064387
0.016964
0.00212778
1.368e-05
0.0444768
0.0322959
0.00220424
0.000196238
1.40013e-05
0.00176699
0.00343674
0.0340973
0.00182437
0.000207705
0.000176841
0.00256047
9.55533e-06
0.00284842
0.0458749
0.0161704
0.00261722
0.00472953
0.00424195
0.0413351
0.0446241
0.0338391
0.00145095
0.000209266
0.0318927
7.8736e-05
4.55704e-05
0.000543529
0.0019375
5.75946e-05
0.000410764
0.000100842
0.000692926
0.0110351
0.0123788
9.81048e-05
0.00909717
8.59898e-05
0.0287649
0.000508551
0.000126138
0.0164441
0.000298569
7.11628e-05
0.00189469
3.91218e-05
0.00113827
0.0367225
0.0249679
0.000157629
0.0314541
0.000308293
0.00177695
8.48701e-05
0.000134175
0.000174192
0.000200427
0.00110821
0.0169267
0.000296722
0.000374492
0.00169145
0.00780176
0.000225349
0.00062384
0.000664484
0.000182364
0.000817612
0.0246809
0.000348117
0.00125014
0.00107087
4.5187e-05
0.000129498
5.64684e-05
1.96115e-05
4.02919e-05
0.000260042
0.0260691
0.000479494
0.000559655
0.000105284
0.00138168
4.94955e-05
0.000965111
0.000832886
5.12197e-05
0.0209392
5.00303e-05
0.0170085
0.00159942
9.68828e-05
0.00607402
0.00306953
0.00443957
0.00285985
0.00551731
0.00446573
0.0075781
0.00483634
0.000108564
0.00114508
0.00068791
0.000909899
0.00010605
0.000465795
0.000141953
0.00163905
0.00125864
0.00192979
0.00244904
4.21504e-06
0.000227078
2.11095e-06
5.72309e-07
1.21802e-06
0.00391579
0.00312808
0.00424377
0.0053905
4.63602e-06
8.78852e-06
1.42113e-05
0.0081475
0.00570101
0.00478842
0.00670534
0.000127818
2.61049e-07
1.02237e-06
4.81462e-07
1.1617e-07
0.00224763
0.00276936
0.00298161
0.00470596
0.00362015
1.13449e-05
1.16155e-05
6.67162e-06
6.45549e-06
0.00068184
0.00179338
0.00112087
4.33868e-06
3.23852e-06
0.000690516
2.83505e-05
0.000689825
4.25133e-05
2.50039e-05
0.00181486
0.000110461
2.51401e-06
1.51308e-05
7.96131e-06
8.13002e-06
1.16743e-06
0.000102845
2.12935e-06
7.78968e-05
0.000551038
5.66564e-05
9.27871e-05
9.49409e-05
9.09069e-05
0.000202416
0.0029658
0.00112767
5.60929e-05
0.000818958
5.71125e-05
0.00107962
0.00814482
1.18304e-05
0.000191128
1.6074e-05
0.000155373
0.000945463
0.0129452
0.000282295
0.0132666
0.0010624
0.000257663
1.67969e-05
0.000971365
5.62379e-05
0.00290088
0.000420668
2.47324e-05
6.87205e-05
8.75442e-05
0.000153623
0.0128055
7.9353e-05
6.76776e-06
5.71116e-05
3.38137e-05
1.16733e-05
9.55811e-05
0.00295571
0.00017383
2.36114e-06
0.000401482
0.00111118
8.31212e-06
0.000259119
0.00157772
1.81905e-05
0.0038735
0.000172263
0.00104629
6.57822e-05
0.000567559
0.000419119
2.88364e-05
4.17619e-05
3.28329e-05
0.000348547
5.68485e-05
0.000107462
0.00140384
3.38887e-05
0.000236639
0.000762913
0.00178576
0.000443954
3.17817e-05
4.83451e-05
0.0011164
0.000125092
0.000772882
5.87301e-05
0.0110318
0.00963441
6.92365e-06
0.000124449
0.000732201
9.40285e-05
0.00657697
0.000653948
0.000156811
6.09196e-06
0.00783159
0.000558249
7.36448e-06
0.000191245
0.00102786
9.66419e-05
0.00730543
9.4683e-05
0.000489604
0.0025667
0.000111399
0.00225181
7.90543e-05
0.0014927
4.82097e-05
0.00166557
6.99206e-05
0.00191188
4.68794e-05
0.0018338
0.000528296
3.34708e-05
0.000705005
5.31948e-05
0.000143137
0.00281564
6.00833e-06
1.0673e-05
9.53222e-06
5.29239e-06
0.0121545
0.000484113
0.00775442
4.13651e-06
0.000156532
2.71418e-05
0.00129181
0.000423719
1.97225e-05
9.72705e-06
0.0010842
5.02699e-06
0.00073086
0.000856381
1.96654e-05
2.0028e-05
0.000698563
3.40247e-05
0.000443893
3.59468e-05
0.00088512
0.000336713
2.87169e-05
0.000703801
0.00248115
0.000211694
1.68352e-05
0.000487369
0.00327641
0.000277146
2.08218e-05
0.000605486
0.00435601
0.000220025
0.00469654
0.000268311
1.21934e-05
0.000406677
0.00244583
0.000170166
9.91718e-06
0.00033085
0.001873
0.000131216
3.39278e-05
2.00116e-05
2.01456e-05
0.000245594
0.000151755
7.80164e-06
0.000256103
0.00332463
0.00475023
0.000358492
0.00482622
0.000315498
3.54184e-05
2.11555e-05
3.9824e-05
8.01863e-05
1.42427e-05
0.000255953
1.11427e-05
0.000258425
0.000996221
0.00126903
0.0017818
0.00138111
2.38204e-05
0.00054441
1.86225e-05
0.000278669
0.000406366
1.2491e-05
0.000283018
0.0013358
0.000158108
1.40654e-05
0.000380008
0.00184108
0.000173797
0.000393216
0.00535798
0.000415636
0.00066828
0.00768198
0.000622211
6.12382e-05
4.83209e-05
0.000481884
5.51463e-05
0.0867584
0.0717931
0.0635396
0.0789763
0.0190235
0.0227157
0.0163198
0.0134857
0.105623
0.0994265
0.097651
0.103058
0.0457215
0.0891596
0.0286356
0.0903731
0.0377029
0.079415
0.0156332
0.0785923
0.00931626
0.0750293
0.0118647
0.0847139
0.0190039
0.00494701
0.00695687
0.0122473
0.00913855
0.000866115
0.00312032
0.00208708
0.000537697
0.102662
0.107384
0.10832
0.104734
0.0315672
0.0231264
0.0689207
0.0143572
0.0223611
0.0165034
0.000804842
0.0595323
0.0956102
0.0310762
0.025733
0.0122559
0.0186473
0.0240062
0.0254856
0.00134785
0.012743
0.00649891
0.0262153
0.0208356
0.0145128
0.0858411
0.0192266
0.044941
0.00133527
0.0656424
0.00778346
0.0527026
0.0549281
0.00759965
0.0976103
0.0442186
0.038048
0.000321075
0.107461
0.0278212
0.0272443
0.0921694
0.0351333
0.107328
0.0444146
0.0151592
0.0187536
0.0931103
0.00178117
0.0428109
0.016304
0.0738123
0.0305559
0.0258865
0.0718445
0.0482232
0.0302917
0.0180325
0.0674797
0.0621544
0.0378094
0.0364463
0.0963558
0.00601457
0.0471928
0.0675727
0.0585385
0.055745
0.0589326
0.0105698
0.034625
0.0630753
0.0596521
0.00530554
0.0230847
0.0332178
0.00440948
0.0769188
0.0113909
0.0562334
0.00285821
0.0684347
0.0542403
0.0699934
0.00778148
0.0672307
0.00796388
0.0759523
0.0074417
0.011151
0.0285558
0.00491561
0.0259711
0.0050766
0.0343482
0.0177704
0.0621448
0.0511822
0.00328071
0.0218512
0.0747259
0.0230881
0.0243357
0.0849967
0.0144462
0.00217379
0.0593716
0.0125531
0.104151
0.0607555
0.0512697
0.00335508
0.0707163
0.0117591
0.0816223
0.0105374
0.0733739
0.0837968
0.0884606
0.0544695
0.077578
0.0509459
0.00281727
0.00782692
0.0209237
0.0095992
0.0188617
0.00381391
0.079472
0.0622127
0.0633908
0.0658962
0.0966338
0.0510503
0.0846188
0.0506556
0.018763
0.0398933
0.0261051
0.0407551
0.0515672
0.00696349
0.0728799
0.0432258
0.0223893
0.097496
0.0554277
0.0013397
0.0670321
0.00445341
0.0888113
0.0388538
0.0444878
0.0934707
0.0403792
0.0346533
0.0248537
0.0841677
0.0308905
0.0345524
0.0297985
0.044603
0.0545596
0.0394899
0.0950407
0.0489085
0.0429066
0.0491283
0.0979119
0.0423809
0.103971
0.0337906
0.100411
0.00605513
0.0642284
0.0593235
0.000273954
0.0494428
0.00198632
0.0532798
0.0335687
0.0399918
0.0314321
0.0114873
0.0913662
0.0075473
0.0851919
0.073455
0.0284429
0.103212
0.0701896
0.0359823
0.080217
0.031211
0.0902203
0.0158288
0.0991503
0.0107141
0.0926505
0.103102
0.0276978
0.102718
0.0215927
0.0949236
0.0160372
0.0209382
0.083306
0.0307153
0.0859609
0.0404396
0.000818678
0.05685
0.000184685
0.0464231
0.000102475
0.0407098
0.0502226
0.0589678
0.0965114
0.0772814
0.0220139
0.0042758
0.00320576
0.00560058
0.00931445
0.00720576
0.0369683
0.00491965
0.00124809
0.000705596
0.00122054
0.00206168
0.0652493
0.059061
0.0503919
0.0554903
0.000210568
0.000392017
0.000725367
0.000407114
0.00323818
0.00348067
0.00501907
0.00463572
0.0262163
0.0302644
0.0202693
0.01832
0.0522863
0.0415557
0.0351172
0.0437617
0.00234635
0.0022023
0.00146786
0.055735
0.0484141
0.0612811
0.0703712
0.00198875
7.72619e-05
0.0325976
0.0101398
0.00233865
0.0236374
0.0521219
0.00724214
0.00149946
0.0446343
0.0218099
0.0712426
0.0773854
0.0877071
0.0813006
0.0071831
0.00169571
0.0378069
0.00664153
0.0347341
0.00564167
0.00416082
0.0423472
0.00809573
0.00112024
0.000915877
0.000284852
0.00888414
0.00188538
0.00165095
0.00333468
0.0456975
0.000519253
0.0119613
0.00295993
0.00447698
0.0237575
0.00379025
0.00245088
0.00015088
0.00648279
0.00116278
0.0196909
0.0134498
0.0049596
0.000976329
0.00216511
0.041616
0.0391884
0.00185701
0.00354772
0.0136529
0.0149618
0.0102073
0.000652616
0.00152387
0.00738932
0.0146784
0.0149649
0.00781872
0.0458048
0.0311258
0.00451972
0.00091267
0.0268788
0.0160283
0.060906
0.0113645
0.00119041
0.0174
0.0158474
0.0589075
0.00522286
0.0216073
0.0136101
0.0509299
0.0083581
0.000827674
0.0131112
0.0206921
0.0250527
0.00295618
0.0179476
0.019017
0.0104835
0.0549272
0.0150815
0.066492
0.00145897
0.0183311
0.00359251
0.0168942
0.0112571
0.00971187
0.00239728
0.0128105
0.00909909
0.00705824
0.00173238
0.01855
0.0222361
0.00742508
0.000303257
0.00412353
0.00235714
0.0100416
0.0270626
0.0103056
0.000554717
0.0373928
0.00573305
0.00136401
0.0344155
0.0320379
0.0139716
0.0385965
0.0557896
0.00520938
0.0177204
0.0184305
0.00100342
0.0138075
0.00618297
0.00154625
0.0112254
0.0505199
0.00155988
0.0093927
0.0449044
0.0873938
0.00290049
0.000159753
0.0780616
8.15635e-05
0.0795376
0.0895645
0.00250684
0.0241616
0.00209477
0.0239171
0.00251202
0.00877673
0.0290233
0.00391992
0.0335847
0.0308981
0.00353872
0.00154443
0.0292005
0.0227223
0.0306778
0.00293502
0.0230353
0.0820153
3.8294e-05
0.0265641
0.0743437
0.0206764
0.0670382
0.0179921
0.0736309
1.84666e-05
0.0359559
0.0291515
0.0222282
0.0119116
0.041741
0.00585651
0.0458184
0.0369052
0.017288
0.0071398
0.0213799
0.00997771
0.00922915
0.0065353
0.00402463
0.0386657
0.0478329
0.00541515
0.011891
0.00716134
0.0153737
0.0387877
0.0048882
0.0477555
0.00662619
0.00202652
0.0332088
0.0234673
0.036384
0.0299159
0.0279611
0.0278948
0.0254843
0.0219301
0.0295283
0.0180427
0.0224376
0.0168579
0.025525
0.0135775
0.0579867
0.0687502
0.00117904
0.00133963
0.0126447
0.0189834
0.0643809
0.0138384
0.00267803
0.057583
0.00883196
0.00322605
0.0678777
0.011587
0.00326734
0.00496644
