# vtk DataFile Version 2.0
Unstructured Grid by M++
ASCII
DATASET UNSTRUCTURED_GRID
POINTS 4072 float
  0.812500   0.625000 0
  0.953125   0.609375 0
  0.968750   0.609375 0
  0.875000   0.687500 0
  0.812500   0.937500 0
  0.859375   0.687500 0
  0.796875   0.937500 0
  0.968750   1.000000 0
  0.984375   0.984375 0
  0.968750   0.984375 0
  0.843750   0.656250 0
  0.875000   0.656250 0
  0.812500   0.906250 0
  0.859375   0.640625 0
  0.781250   0.984375 0
  0.843750   0.734375 0
  0.781250   0.968750 0
  0.843750   0.718750 0
  0.765625   0.968750 0
  0.828125   0.718750 0
  0.921875   0.593750 0
  0.859375   0.843750 0
  0.765625   1.000000 0
  0.828125   0.750000 0
  0.875000   0.796875 0
  0.890625   0.781250 0
  0.875000   0.781250 0
  0.921875   0.609375 0
  0.859375   0.859375 0
  0.984375   0.968750 0
  1.000000   0.968750 0
  1.000000   0.953125 0
  0.859375   0.734375 0
  0.796875   0.984375 0
  0.875000   0.734375 0
  0.812500   0.984375 0
  0.906250   0.953125 0
  0.968750   0.703125 0
  0.796875   0.750000 0
  0.812500   0.812500 0
  0.828125   0.796875 0
  0.781250   0.843750 0
  0.843750   0.593750 0
  0.953125   0.937500 0
  0.890625   0.625000 0
  0.828125   0.875000 0
  0.906250   0.625000 0
  0.843750   0.875000 0
  0.890625   0.609375 0
  0.828125   0.859375 0
  0.906250   0.609375 0
  0.843750   0.859375 0
  0.906250   0.593750 0
  0.843750   0.843750 0
  0.843750   0.765625 0
  0.859375   0.750000 0
  0.796875   1.000000 0
  0.937500   0.609375 0
  0.875000   0.859375 0
  0.765625   0.515625 0
  0.843750   0.640625 0
  0.843750   0.578125 0
  0.781250   0.828125 0
  0.843750   0.515625 0
  0.781250   0.765625 0
  1.000000   0.687500 0
  0.937500   0.937500 0
  0.828125   0.593750 0
  0.765625   0.843750 0
  0.828125   0.531250 0
  0.765625   0.781250 0
  0.765625   0.984375 0
  0.828125   0.734375 0
  0.812500   0.734375 0
  0.765625   0.765625 0
  0.781250   0.750000 0
  1.000000   0.656250 0
  0.937500   0.906250 0
  0.765625   0.750000 0
  0.968750   0.578125 0
  0.953125   0.593750 0
  0.953125   0.578125 0
  0.937500   0.593750 0
  0.875000   0.843750 0
  0.812500   0.796875 0
  0.875000   0.546875 0
  0.984375   0.953125 0
  0.984375   0.937500 0
  0.765625   0.562500 0
  0.937500   0.656250 0
  0.875000   0.906250 0
  0.765625   0.531250 0
  0.937500   0.625000 0
  0.875000   0.875000 0
  0.937500   0.859375 0
  1.000000   0.609375 0
  0.828125   0.687500 0
  0.765625   0.937500 0
  1.000000   0.781250 0
  0.812500   0.671875 0
  0.984375   0.765625 0
  0.828125   0.656250 0
  1.000000   0.750000 0
  0.937500   1.000000 0
  0.781250   0.515625 0
  0.953125   0.671875 0
  0.890625   0.921875 0
  0.781250   0.578125 0
  0.953125   0.984375 0
  0.984375   0.640625 0
  0.921875   0.890625 0
  0.968750   0.625000 0
  0.906250   0.875000 0
  0.812500   0.765625 0
  0.984375   0.859375 0
  1.000000   0.843750 0
  0.968750   0.859375 0
  0.843750   0.703125 0
  0.781250   0.953125 0
  0.843750   0.750000 0
  0.781250   1.000000 0
  0.843750   0.687500 0
  0.781250   0.937500 0
  0.828125   0.765625 0
  1.000000   0.859375 0
  0.828125   0.703125 0
  0.765625   0.953125 0
  0.968750   0.968750 0
  0.968750   0.953125 0
  0.796875   0.781250 0
  0.859375   0.531250 0
  0.968750   0.937500 0
  0.953125   0.968750 0
  0.781250   0.796875 0
  0.843750   0.546875 0
  0.953125   0.953125 0
  0.781250   0.812500 0
  0.953125   0.906250 0
  0.859375   0.781250 0
  0.859375   0.703125 0
  0.796875   0.953125 0
  0.859375   0.765625 0
  1.000000   0.734375 0
  0.937500   0.984375 0
  0.828125   0.578125 0
  0.765625   0.828125 0
  1.000000   0.796875 0
  0.828125   0.640625 0
  0.984375   0.734375 0
  0.921875   0.984375 0
  0.812500   0.640625 0
  0.890625   0.953125 0
  0.953125   0.703125 0
  0.796875   0.687500 0
  0.968750   0.781250 0
  0.968750   0.750000 0
  0.906250   1.000000 0
  0.953125   0.765625 0
  0.812500   0.718750 0
  0.843750   0.984375 0
  0.906250   0.734375 0
  0.921875   0.625000 0
  0.859375   0.875000 0
  0.921875   0.687500 0
  0.859375   0.937500 0
  0.968750   0.796875 0
  0.796875   0.703125 0
  0.937500   0.671875 0
  0.984375   0.796875 0
  0.812500   0.703125 0
  0.765625   0.687500 0
  0.937500   0.843750 0
  1.000000   0.593750 0
  0.937500   0.781250 0
  1.000000   0.531250 0
  0.812500   0.781250 0
  0.984375   0.875000 0
  0.843750   1.000000 0
  0.906250   0.750000 0
  0.968750   0.500000 0
  0.968750   0.718750 0
  0.906250   0.968750 0
  0.796875   0.625000 0
  0.859375   1.000000 0
  0.921875   0.750000 0
  0.968750   0.765625 0
  0.796875   0.609375 0
  0.859375   0.984375 0
  0.921875   0.734375 0
  1.000000   0.625000 0
  0.937500   0.875000 0
  1.000000   0.562500 0
  0.937500   0.812500 0
  0.875000   0.984375 0
  0.937500   0.734375 0
  0.906250   0.703125 0
  0.843750   0.953125 0
  0.906250   0.687500 0
  0.843750   0.937500 0
  0.937500   0.765625 0
  0.890625   0.718750 0
  0.828125   0.968750 0
  0.890625   0.703125 0
  0.828125   0.953125 0
  0.921875   0.781250 0
  0.906250   0.796875 0
  0.921875   0.718750 0
  0.859375   0.968750 0
  0.921875   0.703125 0
  0.859375   0.953125 0
  0.765625   0.546875 0
  0.937500   0.640625 0
  0.875000   0.890625 0
  0.937500   0.703125 0
  0.875000   0.953125 0
  0.765625   0.593750 0
  0.937500   0.687500 0
  0.875000   0.937500 0
  0.890625   0.937500 0
  0.953125   0.687500 0
  0.906250   0.718750 0
  0.843750   0.968750 0
  0.937500   0.796875 0
  0.828125   0.921875 0
  0.890625   0.671875 0
  0.984375   0.750000 0
  0.921875   1.000000 0
  0.812500   0.593750 0
  0.875000   0.968750 0
  0.937500   0.718750 0
  0.890625   1.000000 0
  0.953125   0.750000 0
  0.968750   0.671875 0
  0.906250   0.921875 0
  0.968750   0.734375 0
  0.906250   0.984375 0
  0.796875   0.578125 0
  0.984375   0.671875 0
  0.921875   0.921875 0
  0.812500   0.515625 0
  0.812500   0.578125 0
  0.765625   0.578125 0
  0.843750   0.906250 0
  0.906250   0.656250 0
  0.890625   0.750000 0
  0.828125   1.000000 0
  0.781250   0.593750 0
  0.984375   0.546875 0
  0.921875   0.796875 0
  0.921875   0.812500 0
  0.859375   0.656250 0
  0.859375   0.593750 0
  0.796875   0.843750 0
  0.859375   0.578125 0
  0.796875   0.828125 0
  0.921875   0.953125 0
  0.984375   0.703125 0
  0.984375   0.625000 0
  0.921875   0.875000 0
  0.875000   0.640625 0
  0.812500   0.890625 0
  0.875000   0.578125 0
  0.812500   0.828125 0
  0.765625   0.859375 0
  0.828125   0.609375 0
  0.937500   0.953125 0
  1.000000   0.703125 0
  0.921875   0.906250 0
  0.984375   0.656250 0
  0.921875   0.968750 0
  0.984375   0.718750 0
  1.000000   0.765625 0
  0.890625   0.984375 0
  0.953125   0.734375 0
  0.953125   0.656250 0
  0.890625   0.906250 0
  0.953125   0.718750 0
  0.890625   0.968750 0
  0.781250   0.562500 0
  0.796875   0.796875 0
  0.968750   0.640625 0
  0.906250   0.890625 0
  0.953125   0.796875 0
  0.953125   0.859375 0
  0.781250   0.703125 0
  0.984375   0.781250 0
  0.875000   1.000000 0
  0.937500   0.750000 0
  0.906250   0.937500 0
  0.968750   0.687500 0
  0.843750   0.625000 0
  0.781250   0.875000 0
  0.765625   0.796875 0
  0.937500   0.890625 0
  1.000000   0.640625 0
  0.781250   0.781250 0
  0.906250   0.906250 0
  0.968750   0.656250 0
  0.796875   0.765625 0
  1.000000   0.718750 0
  0.937500   0.968750 0
  0.828125   0.562500 0
  0.765625   0.812500 0
  0.828125   0.625000 0
  0.484375   0.750000 0
  0.421875   1.000000 0
  0.000000   0.218750 0
  0.453125   0.640625 0
  0.281250   0.546875 0
  0.312500   0.640625 0
  0.406250   0.984375 0
  0.468750   0.734375 0
  0.328125   0.656250 0
  0.390625   0.828125 0
  0.453125   0.578125 0
  0.437500   0.875000 0
  0.015625   0.093750 0
  0.312500   0.531250 0
  0.406250   0.937500 0
  0.343750   0.562500 0
  0.281250   0.812500 0
  0.453125   0.984375 0
  0.359375   0.625000 0
  0.296875   0.875000 0
  0.468750   0.796875 0
  0.046875   0.015625 0
  0.437500   0.656250 0
  0.312500   0.578125 0
  0.421875   0.921875 0
  0.000000   0.140625 0
  0.484375   0.671875 0
  0.265625   0.734375 0
  0.468750   0.984375 0
  0.046875   0.203125 0
  0.406250   0.625000 0
  0.390625   0.609375 0
  0.375000   0.625000 0
  0.265625   0.562500 0
  0.484375   0.812500 0
  0.062500   0.031250 0
  0.484375   0.984375 0
  0.062500   0.203125 0
  0.312500   0.890625 0
  0.375000   0.640625 0
  0.375000   0.671875 0
  0.390625   0.687500 0
  0.484375   0.843750 0
  0.390625   0.500000 0
  0.328125   0.687500 0
  0.328125   0.765625 0
  0.390625   0.515625 0
  0.437500   0.796875 0
  0.484375   0.531250 0
  0.468750   0.968750 0
  0.046875   0.187500 0
  0.453125   0.843750 0
  0.453125   0.812500 0
  0.281250   0.718750 0
  0.468750   0.859375 0
  0.265625   0.984375 0
  0.375000   0.765625 0
  0.296875   0.562500 0
  0.484375   0.781250 0
  0.062500   0.000000 0
  0.453125   1.000000 0
  0.031250   0.218750 0
  0.453125   0.546875 0
  0.312500   0.703125 0
  0.328125   0.718750 0
  0.296875   0.656250 0
  0.281250   0.640625 0
  0.265625   0.656250 0
  0.281250   0.671875 0
  0.484375   0.890625 0
  0.062500   0.109375 0
  0.296875   0.687500 0
  0.296875   0.625000 0
  0.265625   0.703125 0
  0.265625   0.687500 0
  0.265625   0.625000 0
  0.953125   0.046875 0
  0.484375   0.875000 0
  0.484375   0.921875 0
  0.062500   0.140625 0
  0.453125   0.921875 0
  0.031250   0.140625 0
  0.968750   0.234375 0
  0.171875   0.671875 0
  0.500000   0.796875 0
  0.078125   0.015625 0
  0.218750   0.718750 0
  0.062500   0.828125 0
  0.734375   0.250000 0
  0.906250   0.140625 0
  0.109375   0.578125 0
  0.781250   0.015625 0
  0.718750   0.187500 0
  0.031250   0.828125 0
  0.718750   0.234375 0
  0.890625   0.125000 0
  0.093750   0.562500 0
  0.734375   0.359375 0
  0.859375   0.546875 0
  0.062500   0.984375 0
  0.750000   0.406250 0
  0.718750   0.343750 0
  0.250000   0.750000 0
  0.234375   0.734375 0
  0.046875   0.578125 0
  0.734375   0.000000 0
  0.828125   0.125000 0
  0.031250   0.562500 0
[...]
POINT_DATA 4072
SCALARS scalar_value float 1
LOOKUP_TABLE default
-2.78909e-05
-0.000555666
-0.000678561
0.000261195
-0.000278444
0.000358006
-0.00183454
0
-5.17646e-05
-0.000285511
-1.9479e-05
8.89854e-05
-0.000153506
0.000410805
-0.000200418
-0.00037505
-0.000261655
0.000308588
-0.000136036
0.000329163
3.26782e-05
-0.000244598
0
0.00067632
-0.000799359
-0.000169835
0.000325536
-0.000986384
5.60857e-05
-7.24321e-05
3.5533e-05
-0.000338174
-3.63488e-05
-5.99499e-05
-0.000486939
-0.000226464
-0.000208863
-0.00017672
-0.0010336
0.000908378
0.000341231
0.000146375
7.49456e-05
1.86866e-05
-0.000550869
0.000276776
0.000262252
0.000339667
-0.0003868
0.000102451
-0.000132335
-0.000144032
-0.000305396
0.000569775
-0.000379892
0.00044223
0
-0.000398163
-0.000409679
-0.000226137
-0.000200864
-0.000107544
-0.000571712
-0.000826661
-0.000592677
-0.000215161
0.000143954
0.000481309
-7.03658e-05
0.000505364
-0.000600233
0.000248356
0.000472131
-1.5876e-05
7.86779e-05
-6.84965e-05
-0.000458952
-2.7685e-05
-0.000310279
-0.000782054
0.000346593
2.95634e-05
-0.000306365
0.000231388
-0.000449884
-0.000733482
5.7597e-06
-0.000186064
0.000635909
0.000537168
3.05653e-05
3.9059e-05
2.47052e-05
0.000326942
-0.000327866
-0.000388095
0.00039945
-0.000642751
-0.000237209
-0.000454568
-0.000189034
0.000724443
-0.000232571
0
-0.000768615
-0.000115303
0.000210491
-0.00093388
0.000183027
-0.000253948
9.30122e-05
0.000298746
-9.35458e-05
-0.000191403
-0.000201938
-4.91714e-05
-3.77179e-05
-4.05035e-05
-1.25044e-05
0.000376748
0
-0.000101297
-0.000491047
0.000200751
-0.000289308
0.000732242
0.000207413
-7.0718e-05
-0.000209139
-0.00116729
-2.85295e-05
-8.43618e-05
-7.82419e-05
-0.000670504
-0.000660314
0.000165478
5.22499e-05
8.91274e-05
0.000519351
-8.78857e-05
-0.000210985
-0.000104517
-0.000354628
-8.84137e-05
-5.93023e-05
-0.000259563
-0.000240638
0.000288023
-0.000194898
-1.82633e-05
-0.000236382
9.95364e-05
0.000259988
-0.00088024
-0.000109128
-0.000145407
0
6.97603e-05
-0.000197614
0.000472719
-0.000372416
-0.000204682
-9.29643e-05
5.95316e-05
-0.000333203
-0.000144833
-0.000948569
-0.000793426
-0.000160005
-0.000373809
0.000125248
-0.000432391
0.000356399
-0.000115231
0.000671664
0.000668728
-2.66473e-05
0
0.000327346
0.00109735
-0.000198138
2.85197e-05
-0.000301402
0
-0.000598709
-0.000236066
-0.00128869
-0.000140572
-0.00049424
-0.000461798
-0.000272705
0.00101718
-0.000288012
8.45965e-05
7.77009e-05
-0.000496673
0.000280825
0.000462193
0.000533182
-0.000151324
6.91817e-05
0.000295259
-0.000746435
-0.00016243
-0.000542209
0.000218133
-0.000168124
-0.000193911
-0.000972589
0.000199969
-0.000616657
-0.000686162
-0.000137863
-0.00026525
-3.22257e-05
0.000595522
0.000366062
2.77517e-05
-0.000170804
2.70122e-06
0.00059682
1.14439e-05
-0.000511727
0.000108129
-0.000697354
-0.000129426
0
0.000590457
9.71823e-05
-0.000150559
0
0.000125669
-0.000157806
-0.000249368
-0.000271504
-0.000148703
-0.000884439
-2.79271e-05
0.000101164
-0.000809358
-0.000630598
-0.00102193
0.000499487
0.000348366
0.00011689
0
7.04367e-05
0.000209964
-0.000200746
0.000163886
-1.75807e-05
0.000434168
-0.000485701
-0.000151044
-0.000970198
5.70016e-05
-0.000124067
0.000172032
-0.00115934
-9.07754e-05
-0.000873992
-0.000882196
-0.000295953
-0.00096753
0.000475839
-0.000222364
-0.000410361
-0.000189495
-0.000250402
-6.69068e-05
-0.000162831
-0.000270263
-3.73358e-05
0.000159583
0.000548203
-0.000334054
-8.37475e-05
-0.000118768
0.000678
-0.000577532
-0.000444566
-0.000145773
0.000123816
-6.62789e-05
-0.00035707
-0.000157391
0
-0.000221499
2.64121e-05
-0.000288061
0.00032299
0.00167011
0.000218419
-0.00016331
-1.98004e-05
1.14066e-05
-5.08567e-05
-0.000100114
-0.000555023
-0.000181316
0.000133937
0.000860798
-0.00053035
0.000470406
0.000721652
0
6.56965e-05
0.000166974
0.00252279
0.00049703
-0.000278781
-0.00030603
1.71463e-05
-0.000495215
0.000429829
-0.000472721
5.69094e-05
-2.57221e-05
-0.000150697
0.00085476
4.47229e-05
0.000967358
-0.000585873
0.00016701
0.000142457
-0.000125312
-5.90274e-06
-0.000200332
0.000291439
7.46096e-05
0.000133019
-7.31138e-05
-0.000713578
-6.22325e-06
0.000348788
-0.000756164
0.000239138
0.00109712
0.00058332
-0.000169279
0.000714522
-0.00028427
0.000181842
0.000393774
0.000377538
-0.00060076
2.59961e-06
-0.000109591
1.92974e-05
0.000309427
-0.000932614
-0.00017336
0.000480539
3.70085e-05
-7.82909e-05
0.000613976
-7.54164e-06
-1.72372e-05
-0.000379951
0.000205427
1.65789e-05
0.000301575
0.000959708
-0.000189516
0
-8.67171e-06
-5.20906e-05
-0.000221997
0.000447206
0.00054497
-2.44584e-05
6.20904e-05
0.000132937
0.000326384
-0.000250314
0.000221013
-4.5233e-06
5.59114e-05
-0.000273897
0.000434425
-0.00131431
0.000327434
0.000560465
-0.000553303
0.000620952
-2.72528e-05
0.000798782
-0.000124862
-0.000843611
-0.000275913
9.45146e-05
-3.3464e-06
0.00214998
-0.000256026
0.000741347
0.000315367
0.0010886
7.68482e-05
-0.00259486
9.38154e-05
0.000327307
-0.00105501
-0.000208227
-2.2521e-05
0.00127727
0.00165479
-4.06101e-05
3.84613e-05
0.000223401
0.00161342
-7.39524e-05
7.97421e-05
-0.000951753
-0.000865865
0.0367492
0.000250602
-0.00149118
0.000516139
-1.86839e-05
-6.37822e-05
-4.25572e-05
0.000164501
0.000708087
0.000360208
0.000410457
7.95242e-06
0.00186973
0.00167081
0.000141767
-3.70969e-05
0.000836141
0.000291077
0.000239214
0.00044866
0.000299557
-5.18436e-06
0.000183759
-1.32701e-05
-0.00101206
0.000140055
2.8651e-06
0.000946815
-6.78631e-05
-8.86436e-05
0.000390746
-0.000760293
0.000485581
0.000532171
-4.27416e-05
0.000399393
-7.31222e-05
6.16458e-06
9.22041e-06
0.00439721
-0.000117191
-1.77181e-05
-0.000478702
-0.000587787
0.00058253
-0.00136882
-0.00363817
-0.000170281
0.000754057
0.00178838
0
0.000177878
3.84499e-05
-4.58108e-05
-4.1906e-05
0.000553443
2.32446e-05
-0.0012733
0.000587671
-2.22687e-05
-0.000836306
0.00027745
2.56457e-05
-0.00104739
-0.000496866
0.00185124
1.77483e-05
0
-1.69301e-05
0.000128181
-0.00147138
-0.000459253
-0.000546217
-0.000302598
-0.000718887
-0.000502871
4.98564e-05
0.000281378
0.00026558
2.72526e-05
0.000164805
-0.000870469
-0.00021829
0.000456835
-7.64045e-05
3.41307e-06
0.000729868
-0.0014234
0.00015477
0.000712211
7.16701e-05
0.000279788
-0.00107057
0.000121934
0.000203074
-0.00146815
-0.000457458
0.00172684
0.00024101
-0.000445251
0.000487814
-0.00102035
-0.000776944
0.000144446
0.000800604
-0.00122031
-9.04718e-05
0.0015052
0.000368751
-0.000554582
-0.00138263
-0.00013772
-0.000167751
-0.00012223
0.000143813
-5.74541e-05
-0.00140201
0.000249964
5.70179e-05
-0.00138009
0.00194996
-0.000920301
-9.83053e-05
0.00311142
1.02131e-05
-0.000210846
0.000121657
-0.001816
6.39383e-05
4.03289e-05
0.00206846
-0.00141195
0.000163364
-0.00197205
1.79218e-05
-7.98333e-05
0.000498782
3.48751e-05
-0.000509067
0.000280733
0.000923222
-0.000105794
-0.000124536
3.06195e-05
0.000667502
-0.000363369
1.109e-05
0.000529978
-1.96193e-06
0.000103463
0.000553207
0.00144788
0.000169548
-4.4965e-05
0.000629752
-0.00140414
-0.000291982
-0.000506792
-2.67424e-05
-0.000867516
-2.88156e-05
0.000548884
0.000933447
-0.000979647
-0.000325032
0.00294246
-0.000733183
0.000110554
-0.000132983
2.2165e-05
-0.000407569
0.000185824
-0.000620299
-0.000443088
-0.000112719
0.00118611
8.63756e-05
0.000585228
-0.000308393
-0.000132708
0.000100244
-3.88845e-05
-2.60999e-05
-1.54457e-05
-0.000282106
0.0031575
0.000510951
0.00142389
-7.36266e-05
-0.000307841
0.000509839
5.41166e-05
0.000296173
-0.000313952
-0.00037012
7.27897e-05
3.1336e-05
-0.00115594
-0.000125935
0.000537027
0.00022547
-0.000718723
5.13069e-05
0.000303911
0.000184359
5.41172e-05
1.92534e-05
7.75217e-05
7.54717e-05
-1.41071e-05
0.00147877
-0.00159228
-0.000316451
-0.000284358
0.000168819
-8.61695e-05
0.00809583
0.00265285
-3.80896e-06
0.0004652
0.000801953
8.85811e-05
0.00488778
0
-0.000485586
0.00270715
-0.000505797
-0.000968281
-0.000672288
0.0296846
-0.00171034
-0.000108252
0.00028162
0.00806108
-2.30074e-06
-0.00232377
0.000368446
0.000412006
-6.35544e-05
0.0116947
0.0005236
0.00604853
0.000188954
-0.000461107
0.00484465
0.000872096
-0.000262398
0.000451528
-0.000109338
0.000351383
-0.000343327
0
-0.00141129
0.0208746
7.38617e-05
0.000138074
-0.000391967
0.000223074
-0.000449147
-9.26156e-06
-0.00148451
0.00065753
8.2903e-06
3.43617e-05
-9.16158e-05
-2.22787e-05
-0.000665106
-0.000121135
-3.30458e-05
-6.23345e-05
0.000505006
0.000464121
0.000595372
0.000215714
-4.70221e-05
-0.000514056
-2.62416e-05
0.000787425
7.75356e-05
0
0
-0.0001523
0.00643926
0.000370751
0.000509526
0.00585665
-0.000429189
0.000273537
0.000118915
0.000136071
-0.000332751
0.00743668
-0.000834264
-0.000288701
-7.91641e-05
-0.00020691
0.030273
0.000376798
-0.000168004
0.00422369
0.0269626
0.00357754
-0.00050226
-8.63052e-05
-0.000517165
0.0278754
0.00390613
0.0387832
-0.00140692
-9.71526e-05
-2.3447e-07
0.039739
0.000502303
0.00050778
-7.71113e-06
0.00402168
-0.00100809
-0.00017639
0.00682831
1.80859e-05
0.00134756
0.000286245
-0.0017198
0.0460783
-0.00126859
-0.00281151
0.00161347
0.00225975
0.000533818
0.00260867
0.000532272
0.000188341
-0.00102292
0.00154424
0.000108023
0.00185131
-2.3979e-05
0.000262605
-0.000343471
0.00215547
0.000878194
-0.0013241
0.000778411
0.000254396
0.00040848
0.000502067
-0.00219308
0.00128508
-0.000597978
0.000785193
-0.000135275
0.000807833
0.00224381
0.000845432
0.00308731
3.97346e-05
-9.43047e-05
-0.000852239
0.0155306
-0.000242522
0.000387442
0.00329554
-0.00196798
0.000250709
0.000130715
0.0103678
0.00115512
0.0164071
0.00247277
0.0127081
9.68805e-05
-0.000282368
0.000633342
0.000505756
0.0148728
-0.00033905
0.000279019
-0.00242316
-0.000140716
-0.000524259
0.00818567
-0.00016945
0.000164775
-1.6366e-05
0.00185427
0.00311889
0.000734144
0.00947114
-0.000140179
-0.000121427
-0.000115548
0.00319428
0.0487131
0.00699549
-0.000526111
5.86876e-05
-0.00349601
0.000467621
0.00158067
0.00746587
0.0129111
0.000704827
0.000375828
0.0124327
-0.000159235
7.27004e-05
0.00119463
0.0169325
-0.000115845
-0.000932142
0.00789714
3.85936e-05
0.000305837
0.0017745
0.00907145
0.0542218
0.00106775
4.0287e-05
-0.000181113
0.00557194
0.0149699
-0.0009281
-0.000321963
0.0144504
0.00142414
0.019999
-0.00029374
-0.000269783
0.00228043
0.0152665
0.00159348
0.0166484
-0.000157616
-4.42795e-05
-0.00279536
0.00371881
-0.000171059
-0.000394872
6.83266e-05
0.00017151
0.000141285
-0.00336968
0.000728902
-5.85876e-05
0
-0.00120024
0.00903267
-0.000168611
-0.000645627
0.0119229
-0.000116621
0.00192438
0.000567296
0.00224461
0.0113318
-0.000118009
-0.000825284
0.00887067
-0.00095991
-0.00147744
0.0296552
0.00369222
0.000804712
-0.000392403
-0.000124746
0.0286313
-0.00222255
0.000237888
-0.000196247
-2.93318e-05
0.000198949
0.00251051
1.77411e-05
8.52341e-05
-0.00254575
0.0342457
0.00018824
0.000132447
0.000306557
0.00238473
-0.00264357
0.000107061
-0.000132562
0.000221794
0.00340981
-0.000631012
0.0105294
0.000451427
2.39879e-05
0.000128551
0.00085476
0.00968117
2.36281e-05
0.00121648
0.0238119
-3.26879e-05
0.000121149
0.000417697
-0.00117318
0.00566419
0.000554681
-1.45477e-05
-0.000333968
0.00148714
0.00296241
-0.000171975
-0.000166275
0.00276199
-0.000188319
0.00501732
0.000196029
0.0316105
-0.000352289
-0.000208596
0.000358451
0
-0.000383828
0.000340732
-0.00105301
0.00159431
-9.82164e-05
-0.00157752
0.00035516
0.000689603
-0.000478923
-0.00329437
0.00213563
0.000130108
0.00051068
0.00174042
0.00021958
-0.000802369
0.0100296
0.0026773
0.000211745
-0.000239103
0.00439498
0.00163385
0.0181031
-0.000355397
0.000344939
0.0479236
0.000300541
-0.00080446
0.00333707
-0.000190258
5.80092e-05
-0.00180469
-4.91788e-05
0.0103066
-0.000177651
0.00093214
0.012474
-4.18717e-05
0.000111127
-3.66325e-05
5.75852e-05
0.000224739
0.00130969
0.0012694
5.22856e-05
0.00250533
0.000574561
0.000389065
0.000194139
0.000491823
0.0125542
-4.53578e-05
0.0236306
-0.00141529
0.00155636
0.0153496
0.00342604
0.000596543
0.00906549
0.0201182
0.00040106
6.39238e-06
-0.000136085
-0.0001707
0.00108742
-0.000353381
0
-0.00123955
0.000565781
0.00689666
-0.000391424
0.000807036
0.00758901
0.00227617
-2.34047e-05
0.000175062
5.74939e-05
0.00111982
0.000271445
0.013044
0.0241493
-0.000800338
-0.00073343
0.0204307
-0.00132338
0.0268985
-0.00039196
0.0016083
0.00977093
-4.2187e-05
-5.74355e-05
-3.50634e-05
-0.00201183
0.0254085
0.000590201
-0.000169509
-0.000155311
-0.00123014
2.55176e-05
-0.00021865
4.46611e-05
0.000681116
7.85335e-05
-1.71226e-05
-0.000752101
-9.77653e-05
-0.000493775
0.000396555
-0.000288414
0.00015845
-0.00151242
7.91591e-05
-0.000470324
1.03871e-05
-3.24686e-06
-1.09133e-06
-0.000127775
-0.000348746
-0.000562885
7.40843e-05
8.97615e-05
-2.17559e-05
-9.42307e-05
-3.19499e-05
0.000781011
-0.00026476
-0.000546916
0.000749699
-0.000823317
-3.65427e-05
-0.000524947
0.000504982
-3.51553e-05
0.000538245
4.98319e-05
-0.000178984
-7.2758e-05
9.59591e-05
0.000707999
0.00234662
-0.000562332
0.000808274
-2.84683e-05
0.00144606
0.00167307
6.37684e-05
4.12883e-06
-0.00181519
-0.00112562
0.000183734
-0.00048894
2.8261e-05
-0.00104973
-0.00030823
-0.000110552
-0.000589277
-0.00212862
7.97812e-05
0.00191689
-0.000513754
-0.000246321
-0.00063316
-0.000148151
-1.74363e-05
0.000493345
-0.00051717
-0.000765713
4.50506e-05
0.00105021
0.0015449
-0.000371195
0.00025504
-0.000121832
5.11184e-05
-6.18789e-05
5.41378e-05
-0.000226323
-0.000196032
-0.00157398
0.00221597
0.000171003
-0.000435483
0.000437976
6.36684e-05
-1.21675e-05
-0.000322197
0.00614253
0.000119223
-5.34407e-05
-0.00144516
-0.000937483
9.97961e-08
0.000164455
-0.000572458
0.000321876
-0.000692345
-0.000292678
0.000613177
0.000334932
-6.42538e-05
0.00039626
0.000648599
-0.000439875
-0.000102811
0.000106705
-0.000178383
0.00161864
-0.00075916
-0.000130107
-1.93712e-05
0.000256516
0.000585337
-0.000861172
-0.000459161
-8.69017e-05
0.000211871
-0.000296356
0.000131994
-0.000130218
-0.000625888
1.80469e-05
-0.000497132
-0.00162115
1.40502e-05
2.76609e-05
2.19523e-05
-6.4638e-05
0.000289351
-0.00046191
-0.000360509
-4.88777e-05
0.00116512
-0.000458491
4.93242e-05
-0.000456324
-0.00126789
5.81978e-05
-0.000297452
3.15558e-05
0.000387053
0.000299563
-0.000324914
-0.00145324
3.21599e-05
-0.000296248
-0.000962866
0.000400955
-0.000391971
-0.00228575
9.94047e-05
-0.00193793
0.000553885
-4.70738e-05
-0.000315624
0.000493368
-0.00102281
0.00184349
-0.000160866
-3.98114e-05
-2.78969e-05
0.0012705
0.00139325
0.000631037
0.00198336
-0.000460024
-0.000401773
-8.00121e-05
-0.00143086
-0.000720957
0.000405088
0.00171604
6.36759e-05
-0.00154923
0.000663629
0.000304889
-0.000370036
6.30147e-05
-0.000493042
0.00330538
-0.000369955
-0.000354791
-0.000491644
-0.00054322
-0.000521551
-0.000406735
-0.000243929
-0.000597006
0.00036274
-0.000515747
-0.000682903
6.92579e-05
-0.000759399
-0.000319487
-0.000132483
-0.000524682
0.00014288
-0.000507758
-0.000486284
0.000295522
-0.000309871
-0.000528828
-0.000271273
-0.000183688
-0.000517133
-0.000716645
1.03978e-05
-0.000179302
-0.00016026
0.000494859
-0.00111394
-7.77031e-05
-0.000105922
-0.00026835
0.000458654
-0.000110296
-0.000276346
-0.000893726
-3.4214e-05
0.000210494
0
0.000175619
-0.000227623
-0.000125224
0.000576264
-0.000268963
0.000231457
0.000106672
0.000281103
-3.56602e-05
-0.000251911
-0.000530492
-0.000895609
-0.000115617
0.000644721
-5.23185e-05
0.00140301
-0.00230696
9.89294e-05
-0.0017101
0.00784219
0.000770624
-0.000242901
-0.000579305
1.59283e-05
-1.11439e-05
-0.000409191
-0.000791058
2.27822e-05
-0.000325543
0.000698721
6.21126e-05
-0.000244714
7.39229e-05
0.000680638
-0.00033223
0.000161257
-8.8687e-05
-0.000169445
-1.45802e-05
-4.6488e-06
-0.000242081
0.000713036
0.000248112
-0.000352882
5.40924e-05
-0.000461493
0.000300997
-0.000415272
-0.000762809
7.57534e-05
-0.000973502
8.06516e-05
-5.41135e-06
2.55992e-05
-4.32123e-05
5.82448e-05
-3.77281e-05
-0.00019205
-0.000243781
-0.000284757
-0.00014518
-2.33041e-05
9.55972e-05
-0.000627036
-9.02658e-05
-5.90624e-07
0.000113654
-0.00014059
-0.000686198
-7.30373e-06
0.000184233
-5.70114e-05
-0.000113382
0.0002866
0.000615483
5.46575e-05
5.67669e-05
2.82251e-05
7.63626e-05
-0.000392565
0.000948667
-0.000478406
-0.00101968
-0.000528073
0.000389807
-0.000632567
0.000359883
-0.000238344
-0.000282677
0.000354926
-0.000281529
-0.000175431
0.000479062
-0.000419365
-0.000570736
8.06796e-05
-0.00055239
-0.000104791
-0.000187172
0.000148228
0.000303611
0.00377629
0.00157572
0.0656241
-0.000974914
-0.000436224
0.000223594
-0.0005681
0.00175963
7.49717e-05
0.00217702
0.000321071
-0.000135182
0.00366789
0.000928901
0
-0.000930615
0.00155252
-0.000213425
-0.00065732
0.000115225
0.00030158
-0.000535272
-0.000184201
4.9163e-05
1.62219e-05
-0.000502973
0
-0.000387461
-0.000279344
-0.000373753
-5.6974e-05
-0.000277034
-0.00219509
-0.000392994
-0.000431446
-0.00525267
0.000353722
0.000529071
-5.00615e-05
-0.000131369
-0.000403778
-0.000669378
-0.000441095
0.000844366
0
3.53234e-05
3.48391e-05
0.000263858
-0.000522378
5.40744e-05
0.012634
5.35962e-05
4.28815e-05
-0.000427052
-0.000333644
-0.000488861
0.000852443
-0.000296043
0.000444451
-0.000507868
-0.000905012
0.000823676
8.50447e-05
2.86122e-05
0.00048971
-1.44776e-05
-0.000228903
-0.000422203
6.94547e-05
-0.000108981
-0.000463503
-0.000758112
-0.000341221
0.000117965
-0.000182377
-0.000959153
8.56206e-05
0.00457906
4.77583e-06
0.00205733
5.01972e-05
-0.000235963
2.10137e-05
-0.000612158
-0.00188743
-0.00036086
0.000722328
-2.86088e-05
-0.000517206
-5.59066e-05
0.000164599
0
0.000186861
0.00163659
0.00261896
-0.000526985
9.76573e-05
3.07472e-05
-6.55217e-05
0.000378083
3.39683e-06
0.000389081
0
-9.43557e-05
-0.000127815
0
5.57786e-05
-0.000834987
-6.89426e-05
0.000269338
-0.00150141
0
0.0011586
0.000289527
0.00956033
0.000828896
0.000250489
-0.00138894
-0.00013496
0.000330774
0.00097237
0
-0.000725291
-0.00166689
-0.000293663
0.00178601
0.00808667
0.000155443
-0.00024505
0.00295441
0.00010846
-0.000150309
0.00158554
-0.000903431
-6.61098e-05
-0.000394972
-0.000973097
-0.00104384
0.00200419
-0.000270491
-0.000288344
5.62506e-05
-0.000298546
7.58564e-05
-0.000716157
0.00020834
8.47672e-06
-0.000363918
-0.00149603
-0.00025656
-0.00030119
7.89857e-05
-5.78394e-05
0.00102602
0.000207794
-0.000325631
-4.39588e-05
0.000430993
0.000596708
-0.000196974
-4.1267e-05
0.000260254
-0.000560777
-4.18537e-05
-0.000402513
-0.00114553
-3.55456e-05
-4.05541e-06
-0.00421391
-7.64064e-05
0.00266997
0.00422803
0.000156215
-0.000362227
-0.000565212
-1.26637e-05
0.00069313
0.00255422
6.84751e-05
-0.00059708
0.000186797
-0.000406514
-2.04155e-05
-0.00225024
0.00177338
0.000293737
0.000793155
0.000489551
0.000394143
-4.25906e-05
0.000212354
0.00146524
-0.000319335
0.00113002
-0.000499571
-0.000428862
2.66962e-05
-0.000600464
0.00106301
0.0311835
0.000468705
-0.000441372
-1.18528e-05
-2.03392e-05
-0.000297504
5.62928e-05
0.000848051
-0.000251291
-0.00172289
0.000587635
2.62291e-05
-0.00124515
0.00080155
-0.000115846
1.74136e-05
-0.000157236
-0.000670547
8.31719e-05
-0.000537121
7.13103e-05
-0.000107345
-0.00031634
-0.000148768
-0.00102568
-0.000333215
-0.00113599
0.00046652
0.00042799
2.58439e-05
2.43848e-05
-0.000461223
0
8.90498e-05
-0.00131593
0.000264541
0.00173354
-0.000627971
3.38534e-05
-0.0006167
0.000711279
-0.000333778
-0.000283322
0.000432143
-0.000754087
-0.00126847
-0.000390156
-0.000603361
-5.4849e-05
-0.000125318
-0.000435553
-0.000241776
-0.000147333
0.000228831
-0.000346743
-0.000778573
-0.000227408
-2.52996e-05
-0.000125226
-9.97107e-06
-0.000766712
-0.000868982
7.71688e-05
0.000104045
0.000754125
1.54612e-05
-0.000268432
-3.7652e-05
-0.000649994
-0.000850422
-0.000582306
-0.000450896
-0.000362373
0.000240088
4.23511e-05
-0.000289953
4.08187e-05
-0.000176799
-3.10569e-05
0.000130685
-0.000388587
0
0.000127496
2.95383e-05
-1.09206e-05
4.83558e-05
-0.00199776
0.00299675
0.000220921
0.00140733
-0.000397105
-0.000497073
0.0002646
-0.000494734
0.000239292
0.00328985
0.000175368
0.000501271
-0.000140133
-0.000598564
7.07872e-05
8.98719e-05
0.000503143
0.000376473
-1.12204e-05
-0.000802165
7.7386e-05
0.000504929
-0.000428601
-0.000372663
-0.00141336
-1.13134e-06
4.09865e-05
-0.000989731