# vtk DataFile Version 2.0
Unstructured Grid by M++
ASCII
DATASET UNSTRUCTURED_GRID
POINTS 4072 float
  0.812500   0.625000 0
  0.953125   0.609375 0
  0.968750   0.609375 0
  0.875000   0.687500 0
  0.812500   0.937500 0
  0.859375   0.687500 0
  0.796875   0.937500 0
  0.968750   1.000000 0
  0.984375   0.984375 0
  0.968750   0.984375 0
  0.843750   0.656250 0
  0.875000   0.656250 0
  0.812500   0.906250 0
  0.859375   0.640625 0
  0.781250   0.984375 0
  0.843750   0.734375 0
  0.781250   0.968750 0
  0.843750   0.718750 0
  0.765625   0.968750 0
  0.828125   0.718750 0
  0.921875   0.593750 0
  0.859375   0.843750 0
  0.765625   1.000000 0
  0.828125   0.750000 0
  0.875000   0.796875 0
  0.890625   0.781250 0
  0.875000   0.781250 0
  0.921875   0.609375 0
  0.859375   0.859375 0
  0.984375   0.968750 0
  1.000000   0.968750 0
  1.000000   0.953125 0
  0.859375   0.734375 0
  0.796875   0.984375 0
  0.875000   0.734375 0
  0.812500   0.984375 0
  0.906250   0.953125 0
  0.968750   0.703125 0
  0.796875   0.750000 0
  0.812500   0.812500 0
  0.828125   0.796875 0
  0.781250   0.843750 0
  0.843750   0.593750 0
  0.953125   0.937500 0
  0.890625   0.625000 0
  0.828125   0.875000 0
  0.906250   0.625000 0
  0.843750   0.875000 0
  0.890625   0.609375 0
  0.828125   0.859375 0
  0.906250   0.609375 0
  0.843750   0.859375 0
  0.906250   0.593750 0
  0.843750   0.843750 0
  0.843750   0.765625 0
  0.859375   0.750000 0
  0.796875   1.000000 0
  0.937500   0.609375 0
  0.875000   0.859375 0
  0.765625   0.515625 0
  0.843750   0.640625 0
  0.843750   0.578125 0
  0.781250   0.828125 0
  0.843750   0.515625 0
  0.781250   0.765625 0
  1.000000   0.687500 0
  0.937500   0.937500 0
  0.828125   0.593750 0
  0.765625   0.843750 0
  0.828125   0.531250 0
  0.765625   0.781250 0
  0.765625   0.984375 0
  0.828125   0.734375 0
  0.812500   0.734375 0
  0.765625   0.765625 0
  0.781250   0.750000 0
  1.000000   0.656250 0
  0.937500   0.906250 0
  0.765625   0.750000 0
  0.968750   0.578125 0
  0.953125   0.593750 0
  0.953125   0.578125 0
  0.937500   0.593750 0
  0.875000   0.843750 0
  0.812500   0.796875 0
  0.875000   0.546875 0
  0.984375   0.953125 0
  0.984375   0.937500 0
  0.765625   0.562500 0
  0.937500   0.656250 0
  0.875000   0.906250 0
  0.765625   0.531250 0
  0.937500   0.625000 0
  0.875000   0.875000 0
  0.937500   0.859375 0
  1.000000   0.609375 0
  0.828125   0.687500 0
  0.765625   0.937500 0
  1.000000   0.781250 0
  0.812500   0.671875 0
  0.984375   0.765625 0
  0.828125   0.656250 0
  1.000000   0.750000 0
  0.937500   1.000000 0
  0.781250   0.515625 0
  0.953125   0.671875 0
  0.890625   0.921875 0
  0.781250   0.578125 0
  0.953125   0.984375 0
  0.984375   0.640625 0
  0.921875   0.890625 0
  0.968750   0.625000 0
  0.906250   0.875000 0
  0.812500   0.765625 0
  0.984375   0.859375 0
  1.000000   0.843750 0
  0.968750   0.859375 0
  0.843750   0.703125 0
  0.781250   0.953125 0
  0.843750   0.750000 0
  0.781250   1.000000 0
  0.843750   0.687500 0
  0.781250   0.937500 0
  0.828125   0.765625 0
  1.000000   0.859375 0
  0.828125   0.703125 0
  0.765625   0.953125 0
  0.968750   0.968750 0
  0.968750   0.953125 0
  0.796875   0.781250 0
  0.859375   0.531250 0
  0.968750   0.937500 0
  0.953125   0.968750 0
  0.781250   0.796875 0
  0.843750   0.546875 0
  0.953125   0.953125 0
  0.781250   0.812500 0
  0.953125   0.906250 0
  0.859375   0.781250 0
  0.859375   0.703125 0
  0.796875   0.953125 0
  0.859375   0.765625 0
  1.000000   0.734375 0
  0.937500   0.984375 0
  0.828125   0.578125 0
  0.765625   0.828125 0
  1.000000   0.796875 0
  0.828125   0.640625 0
  0.984375   0.734375 0
  0.921875   0.984375 0
  0.812500   0.640625 0
  0.890625   0.953125 0
  0.953125   0.703125 0
  0.796875   0.687500 0
  0.968750   0.781250 0
  0.968750   0.750000 0
  0.906250   1.000000 0
  0.953125   0.765625 0
  0.812500   0.718750 0
  0.843750   0.984375 0
  0.906250   0.734375 0
  0.921875   0.625000 0
  0.859375   0.875000 0
  0.921875   0.687500 0
  0.859375   0.937500 0
  0.968750   0.796875 0
  0.796875   0.703125 0
  0.937500   0.671875 0
  0.984375   0.796875 0
  0.812500   0.703125 0
  0.765625   0.687500 0
  0.937500   0.843750 0
  1.000000   0.593750 0
  0.937500   0.781250 0
  1.000000   0.531250 0
  0.812500   0.781250 0
  0.984375   0.875000 0
  0.843750   1.000000 0
  0.906250   0.750000 0
  0.968750   0.500000 0
  0.968750   0.718750 0
  0.906250   0.968750 0
  0.796875   0.625000 0
  0.859375   1.000000 0
  0.921875   0.750000 0
  0.968750   0.765625 0
  0.796875   0.609375 0
  0.859375   0.984375 0
  0.921875   0.734375 0
  1.000000   0.625000 0
  0.937500   0.875000 0
  1.000000   0.562500 0
  0.937500   0.812500 0
  0.875000   0.984375 0
  0.937500   0.734375 0
  0.906250   0.703125 0
  0.843750   0.953125 0
  0.906250   0.687500 0
  0.843750   0.937500 0
  0.937500   0.765625 0
  0.890625   0.718750 0
  0.828125   0.968750 0
  0.890625   0.703125 0
  0.828125   0.953125 0
  0.921875   0.781250 0
  0.906250   0.796875 0
  0.921875   0.718750 0
  0.859375   0.968750 0
  0.921875   0.703125 0
  0.859375   0.953125 0
  0.765625   0.546875 0
  0.937500   0.640625 0
  0.875000   0.890625 0
  0.937500   0.703125 0
  0.875000   0.953125 0
  0.765625   0.593750 0
  0.937500   0.687500 0
  0.875000   0.937500 0
  0.890625   0.937500 0
  0.953125   0.687500 0
  0.906250   0.718750 0
  0.843750   0.968750 0
  0.937500   0.796875 0
  0.828125   0.921875 0
  0.890625   0.671875 0
  0.984375   0.750000 0
  0.921875   1.000000 0
  0.812500   0.593750 0
  0.875000   0.968750 0
  0.937500   0.718750 0
  0.890625   1.000000 0
  0.953125   0.750000 0
  0.968750   0.671875 0
  0.906250   0.921875 0
  0.968750   0.734375 0
  0.906250   0.984375 0
  0.796875   0.578125 0
  0.984375   0.671875 0
  0.921875   0.921875 0
  0.812500   0.515625 0
  0.812500   0.578125 0
  0.765625   0.578125 0
  0.843750   0.906250 0
  0.906250   0.656250 0
  0.890625   0.750000 0
  0.828125   1.000000 0
  0.781250   0.593750 0
  0.984375   0.546875 0
  0.921875   0.796875 0
  0.921875   0.812500 0
  0.859375   0.656250 0
  0.859375   0.593750 0
  0.796875   0.843750 0
  0.859375   0.578125 0
  0.796875   0.828125 0
  0.921875   0.953125 0
  0.984375   0.703125 0
  0.984375   0.625000 0
  0.921875   0.875000 0
  0.875000   0.640625 0
  0.812500   0.890625 0
  0.875000   0.578125 0
  0.812500   0.828125 0
  0.765625   0.859375 0
  0.828125   0.609375 0
  0.937500   0.953125 0
  1.000000   0.703125 0
  0.921875   0.906250 0
  0.984375   0.656250 0
  0.921875   0.968750 0
  0.984375   0.718750 0
  1.000000   0.765625 0
  0.890625   0.984375 0
  0.953125   0.734375 0
  0.953125   0.656250 0
  0.890625   0.906250 0
  0.953125   0.718750 0
  0.890625   0.968750 0
  0.781250   0.562500 0
  0.796875   0.796875 0
  0.968750   0.640625 0
  0.906250   0.890625 0
  0.953125   0.796875 0
  0.953125   0.859375 0
  0.781250   0.703125 0
  0.984375   0.781250 0
  0.875000   1.000000 0
  0.937500   0.750000 0
  0.906250   0.937500 0
  0.968750   0.687500 0
  0.843750   0.625000 0
  0.781250   0.875000 0
  0.765625   0.796875 0
  0.937500   0.890625 0
  1.000000   0.640625 0
  0.781250   0.781250 0
  0.906250   0.906250 0
  0.968750   0.656250 0
  0.796875   0.765625 0
  1.000000   0.718750 0
  0.937500   0.968750 0
  0.828125   0.562500 0
  0.765625   0.812500 0
  0.828125   0.625000 0
  0.484375   0.750000 0
  0.421875   1.000000 0
  0.000000   0.218750 0
  0.453125   0.640625 0
  0.281250   0.546875 0
  0.312500   0.640625 0
  0.406250   0.984375 0
  0.468750   0.734375 0
  0.328125   0.656250 0
  0.390625   0.828125 0
  0.453125   0.578125 0
  0.437500   0.875000 0
  0.015625   0.093750 0
  0.312500   0.531250 0
  0.406250   0.937500 0
  0.343750   0.562500 0
  0.281250   0.812500 0
  0.453125   0.984375 0
  0.359375   0.625000 0
  0.296875   0.875000 0
  0.468750   0.796875 0
  0.046875   0.015625 0
  0.437500   0.656250 0
  0.312500   0.578125 0
  0.421875   0.921875 0
  0.000000   0.140625 0
  0.484375   0.671875 0
  0.265625   0.734375 0
  0.468750   0.984375 0
  0.046875   0.203125 0
  0.406250   0.625000 0
  0.390625   0.609375 0
  0.375000   0.625000 0
  0.265625   0.562500 0
  0.484375   0.812500 0
  0.062500   0.031250 0
  0.484375   0.984375 0
  0.062500   0.203125 0
  0.312500   0.890625 0
  0.375000   0.640625 0
  0.375000   0.671875 0
  0.390625   0.687500 0
  0.484375   0.843750 0
  0.390625   0.500000 0
  0.328125   0.687500 0
  0.328125   0.765625 0
  0.390625   0.515625 0
  0.437500   0.796875 0
  0.484375   0.531250 0
  0.468750   0.968750 0
  0.046875   0.187500 0
  0.453125   0.843750 0
  0.453125   0.812500 0
  0.281250   0.718750 0
  0.468750   0.859375 0
  0.265625   0.984375 0
  0.375000   0.765625 0
  0.296875   0.562500 0
  0.484375   0.781250 0
  0.062500   0.000000 0
  0.453125   1.000000 0
  0.031250   0.218750 0
  0.453125   0.546875 0
  0.312500   0.703125 0
  0.328125   0.718750 0
  0.296875   0.656250 0
  0.281250   0.640625 0
  0.265625   0.656250 0
  0.281250   0.671875 0
  0.484375   0.890625 0
  0.062500   0.109375 0
  0.296875   0.687500 0
  0.296875   0.625000 0
  0.265625   0.703125 0
  0.265625   0.687500 0
  0.265625   0.625000 0
  0.953125   0.046875 0
  0.484375   0.875000 0
  0.484375   0.921875 0
  0.062500   0.140625 0
  0.453125   0.921875 0
  0.031250   0.140625 0
  0.968750   0.234375 0
  0.171875   0.671875 0
  0.500000   0.796875 0
  0.078125   0.015625 0
  0.218750   0.718750 0
  0.062500   0.828125 0
  0.734375   0.250000 0
  0.906250   0.140625 0
  0.109375   0.578125 0
  0.781250   0.015625 0
  0.718750   0.187500 0
  0.031250   0.828125 0
  0.718750   0.234375 0
  0.890625   0.125000 0
  0.093750   0.562500 0
  0.734375   0.359375 0
  0.859375   0.546875 0
  0.062500   0.984375 0
  0.750000   0.406250 0
  0.718750   0.343750 0
  0.250000   0.750000 0
  0.234375   0.734375 0
  0.046875   0.578125 0
  0.734375   0.000000 0
  0.828125   0.125000 0
  0.031250   0.562500 0
[...]
POINT_DATA 4072
SCALARS scalar_value float 1
LOOKUP_TABLE default
0.00578263
4.02991e-05
0.000311139
0.00380679
-0.00171259
-0.00300153
-0.00216421
0
0.000502529
-0.00156363
0.0044026
0.00319872
-0.003696
0.00378184
0.00125961
0.00198928
0.00109558
-0.0014129
-0.00179968
0.000890316
0.00151
-0.0002026
0
0.00146797
0.00357106
0.0046084
-0.00350592
0.00112295
0.000806597
-0.000856271
-0.0004858
-0.00139698
-0.00078662
-0.00167179
0.000180422
-0.00101064
4.66017e-05
-0.00167572
0.00321496
5.75136e-05
-0.00327523
0.000698876
0.000949768
-0.000972721
-0.000810614
-0.00181002
0.000293569
0.001566
0.00029172
0.00167247
-0.000520382
-0.00011287
-0.000418687
0.000491841
0.00294784
0.00337822
0
-0.000242036
-0.000172409
0.000151625
-0.00461335
-0.000287824
-0.00555877
0.000250955
0.00395303
0.00114158
0.000974806
-0.00183437
-0.00143222
-0.000337906
0.00426976
-0.00194306
-0.00406068
0.00408943
-0.0026538
-0.00276242
0.000594701
0.000462931
0.00569964
0.000345594
0.000263747
-0.00043328
-0.000260707
0.000115564
0.00286032
-0.000297768
-0.000351162
0.000208403
-0.00229183
0.000251774
0.000533444
-0.00293869
-0.000306135
0.001575
-0.00173597
0.000881279
-0.00333774
-0.00170955
0.00158088
-0.00285382
0.000169582
-0.00631823
0.00273111
0
0.000450619
0.0015524
0.00269448
-0.00220136
-0.000865067
0.000797423
-2.62184e-05
-2.11617e-06
-0.00333754
0.00373795
4.14251e-05
-0.0014049
-0.0010979
-0.0018022
-0.000490865
-0.00271322
0
0.0027253
0.00338217
-0.00398369
-0.000267053
-0.00115249
-0.000817465
0.000639758
-0.00241948
0.00355844
-0.000425827
-0.000293679
-0.000765173
2.1304e-06
0.000326757
0.00020009
0.000441422
2.31654e-05
0.00265216
0.00298231
0.000954873
-0.00214718
-0.00202998
-0.000631207
0.000504798
0.00528597
-0.000542925
0.00433418
0.00134183
-0.000107469
-0.00571921
0.000454887
0.00276243
0.00143994
0.000185634
0.000996926
0
0.00156086
-0.00139339
-0.00086621
-0.00176828
0.00114612
-0.000648864
-0.000948053
0.00105784
-0.00107227
-0.00179634
-0.00155753
-0.00127894
0.00268723
0.00281621
0.00199191
0.000205979
-0.000955156
0.000399239
-0.00164411
-0.00190473
0
-0.00147275
0.000144187
0.00111031
-5.64925e-06
-0.006397
0
0.000847684
-0.00244332
0.00581393
0.00231158
0.00325698
0.000236728
0.00119726
0.000449121
-0.000358761
-0.00184755
-0.00198955
-0.00359044
-7.39054e-06
0.00265161
-0.000336399
-0.000213596
-0.00152773
-0.000381681
0.00347747
0.00135324
0.00275579
0.000489091
-0.0011032
0.000119449
0.00430468
0.00114212
0.000294859
-0.000715006
-0.00142107
-0.00243737
5.98802e-06
-0.0066105
0.00134018
-0.00131191
2.87509e-05
-0.000654589
0.00176493
0.000436297
0.000151855
-0.00171536
0.00324582
-0.000172564
0
0.00181763
-0.00111262
0.0018772
0
4.2658e-05
-0.000443916
-0.000955419
-0.00268439
0.00104612
0.00184118
0.00101731
0.00113263
-0.000560682
-0.000447922
0.00244283
0.00156462
0.00140454
0.0022026
0
0.00514347
0.000364468
-0.00118779
0.0035667
-0.00354577
8.9013e-05
-0.0030434
1.88647e-05
0.00252195
0.00147165
0.00136065
0.000550092
-0.000262503
-0.00238413
-0.00136239
-0.000529418
-0.000329778
-0.00165644
0.00165801
-0.000485314
-0.000690535
0.000392285
0.000456983
-0.000592066
-0.000249733
-0.00215891
0.000972536
0.00296542
0.000103511
-0.0010411
-0.00109466
0.0014707
0.00176069
-0.00145094
0.000119624
0.00118718
-3.69208e-05
0.00169359
0.0038008
0.000436458
0
0.000708998
0.00203265
0.000438497
0.00259892
-0.00313411
0.00228378
0.000354257
0.000724707
-0.00351962
0.00114757
-6.56479e-06
-0.00271438
0.00214216
0.000665918
-0.000996604
-0.00177344
-0.00430546
0.000957492
0
1.74699e-05
0.0126975
0.0615931
0.00967806
-0.00292047
0.00546489
0.0135604
0.00592231
0.0650996
-0.000806373
-5.62566e-06
0.0636741
0.000190299
0.0774475
0.000957749
0.00143961
0.01028
0.003284
0.00134739
3.73806e-08
0.0123557
0.068057
0.00261717
1.05322e-05
0.0053081
-0.00417932
0.00240858
5.32462e-06
0.1851
0.0353178
0.0297946
0.0470693
0.00254849
2.95872e-06
0.000489617
-3.50689e-05
-0.00143256
0.0271616
0.0217571
0.00274954
0.00704985
0.225038
0.00386013
-0.000864759
0.280749
-0.00598363
0.113079
0.00190384
2.16674e-06
-0.00237446
0.00213111
0.000557471
0.00501869
0.0044677
0.00599248
0.135483
0.000154173
2.41049e-06
0
1.95877e-06
0.118117
-0.00414369
0.0026852
0.0120439
-0.00484947
-0.00442556
0.00200587
0.00422505
-4.56281e-06
0.00835892
0.0355008
-0.0034537
-0.0039013
0.0406004
-4.17822e-06
0.00205018
0.00427021
-2.18108e-05
0.00143162
4.10872e-06
2.78705e-05
0.00408911
-0.000137674
-1.76017e-06
-0.00251645
0.000117746
0.0115819
8.8049e-06
0.000384619
0.000170779
0.0436271
-0.000628928
0.059368
-2.03258e-05
-2.27852e-05
0.0248939
0.000121986
-0.000828825
0.000547109
0.0968086
0.00248611
-0.000684451
4.45393e-06
0.000528203
6.34315e-05
2.86006e-05
-0.000173411
9.1298e-05
-0.00927876
0.00190236
-6.85241e-06
0.000273923
0.000329946
0.197094
0.00246325
-0.00119842
9.59146e-06
-0.00321868
0.226263
-0.00132369
-0.00468422
0.0308742
-0.000180437
-0.000357361
0.0994531
0.000121029
-2.90192e-05
-4.61033e-05
0.000268946
-0.000242681
-0.00448112
4.01384e-05
-5.20134e-06
-0.000142828
-0.000213558
-0.00208467
-0.00040866
0.00170713
-0.000207143
7.41379e-06
0.0071207
8.21381e-06
-0.000282622
-9.56652e-05
-2.84167e-05
-0.000139914
-0.000422198
0.0193411
-0.000172209
-0.000699174
0.00215105
-2.52719e-05
-0.000146237
0.183181
4.48901e-05
-0.000144796
-0.0024507
0.19965
0
0.000807337
0.00100438
0.000929997
-0.00091559
0.000562909
8.75585e-05
0.0458501
-0.000236109
-4.45958e-05
0.0293231
0.000366853
0.000441199
0.0297928
0.000548105
-9.09863e-05
-0.000243156
0
1.99387e-05
1.99486e-05
-0.00118193
9.79023e-05
2.27199e-05
1.66543e-05
-0.00145573
0.256994
-0.000555134
0.00334921
0.00259896
-0.000367097
-1.13637e-05
7.59127e-05
-4.08243e-05
0.000193547
0.00320355
0.00127571
1.18062e-05
-6.01723e-06
0.00025541
0.000131191
-0.00227386
-0.000921998
-8.43837e-06
-0.00398072
0.000274241
-8.06508e-06
-0.000447541
0.000654767
-1.29599e-05
0.000489988
1.03348e-05
-0.000601745
-0.000207016
-0.000311085
-0.00389017
0.00022616
-0.000193491
0.235514
5.2517e-06
9.31887e-05
0.000771565
-0.00127738
0.00475534
7.33788e-05
-4.73328e-05
-4.50758e-06
-7.22559e-06
-0.00056602
-0.000974282
-0.00657787
0.0380374
0.00352366
-0.000425569
0.0381643
-0.00693414
6.81301e-06
-5.49799e-05
0.00302467
0.106323
0.000460644
0.103563
-5.28022e-05
-8.3503e-05
-0.000178102
0.000370743
0.00526191
0.123843
-0.00102321
9.39198e-06
0.000201287
0.00752452
-0.00172292
-8.43101e-05
0.00107673
0.000531367
6.16345e-06
0.000490229
0.000175537
0.000214675
0.000541903
-0.00974711
0.000133183
0.000619693
-0.00239686
-3.20483e-05
-7.665e-06
-0.00025339
0.00047818
0.000251836
-2.67027e-05
0.00038236
0.000184019
0.129262
0.000154813
0.00164146
0.0823363
0.0184832
2.11813e-06
-0.00012139
-0.000448073
9.30201e-05
-1.983e-06
-0.0027444
-2.34568e-05
-5.77307e-05
0.0749394
0.002682
0.00507995
0.000136284
0.000761543
0.00028092
0.000826154
0.000593095
-1.35379e-05
0.000228359
0.104571
-5.04736e-05
-0.00156063
-0.00189882
-2.93904e-05
0.000130169
-0.000545833
-0.000396696
-1.46508e-05
0.00231426
-8.31385e-06
-0.00194658
0.00414482
-0.00379803
9.97613e-05
-2.28401e-05
-1.63625e-05
0.000524782
2.04968e-05
-0.00533507
-6.96567e-05
2.70859e-05
6.3511e-05
4.79658e-05
4.8493e-05
-0.00473741
-0.000556628
-0.00135718
2.19528e-06
-3.97337e-05
1.35106e-05
0.0371515
0.0512061
0.000459048
0.0697418
-0.000121332
0.000158761
0.0320991
0
-1.10678e-05
0.0492051
0.00573331
-0.000284059
-3.54274e-05
-0.0113957
-0.00051924
0.000447441
4.56764e-05
0.00954291
0.000143355
7.25113e-06
-0.00180236
-2.58777e-05
4.33176e-05
0.0236243
-0.000402643
0.0167708
6.94638e-05
-3.92266e-05
0.0217643
0.000101172
0.000238113
0.00647696
-0.00185085
-0.00283097
0.000126513
0
-0.00372349
-0.0112394
0.0019689
7.31227e-05
0.000934921
3.54986e-06
-0.00125227
-7.80123e-06
-1.097e-05
0.000229259
0.00302542
0.00273612
-5.23523e-06
4.13597e-05
0.00024573
-0.00222047
0.000526675
-0.00236638
6.76072e-06
0.000423499
7.78063e-06
-0.000206028
-0.00128535
0.000291807
-0.000307321
-0.00102667
0.000207427
0
0
-0.00206426
0.00964451
0.000124582
0.00196315
-7.66434e-05
-3.78964e-05
0.00335384
-0.000581622
-1.7641e-06
-4.40014e-06
0.012676
0.00425424
-3.37493e-06
-0.000177763
-3.36731e-06
0.00724925
0.000137517
8.69221e-06
0.0123808
0.00926638
0.0159104
-0.00179677
-0.000147671
-0.000102056
0.010903
-0.000941772
0.00221027
0.000725489
0.140861
0.0696381
-0.007315
0.00284414
-0.0046881
0.203705
0.0591753
0.116427
0.0189373
0.0494375
0.000177861
0.0979894
0.266192
0.192821
-0.00779549
0.137996
-0.00330256
0.116848
0.0460653
0.0621965
0.0138763
0.0526743
0.0087523
-0.00972751
0.0376549
0.238435
-0.0167363
-0.00352056
-1.84901e-05
-3.59768e-06
0.0313851
-0.0019346
0.00302308
0.0439076
-3.3552e-05
0.262797
0.099696
0.00218045
0.0353643
-0.000603956
0.053094
-0.00206175
0.0445778
-0.00689649
0.0863136
0.0318134
0.0935268
-3.18135e-05
-0.00643028
0.0285358
-0.00373093
0.0381466
0.0261592
-0.0205616
0.165881
-0.00129812
0.00504925
0.175323
0.00862305
0.213192
0.00824219
-0.00362265
-2.52122e-06
0.163183
0.000998591
0.0178965
0.198374
0.097313
0.246513
0.0419079
0.262609
0.00505325
0.000777856
-0.00103684
-2.84603e-07
0.253219
-0.00158855
0.128546
0.00380069
0.000819514
0.00309815
3.31043e-07
0.105247
-0.00137443
-0.0108186
0.108212
0.0027802
-0.00342566
0.267629
0.237064
0.00101464
0.01106
0.234394
0.000363483
0.0224277
-0.00194295
1.11641e-05
0.247076
-0.0071726
0.00135601
0.242624
0.0434229
0.0010168
0.25701
0.261572
0.0422049
-0.00171611
-0.00525465
0.00496917
2.60411e-06
-0.00867918
0.00819374
-0.000539226
0.157721
0.0163311
0.185543
0.00676332
0.00418397
-1.26063e-06
0.144842
0.0129392
0.166024
0.00978484
0.152977
0.261354
0.00168737
0.0233843
0.00233462
0.106091
0.0790544
-0.00113545
-0.0019345
-0.00153824
0.24676
0.123625
0
-0.00538169
0.0233851
-0.000676943
0.210245
0.0142373
0.000160855
0.0236572
-0.000106419
0.189668
0.0114109
0.0023697
-0.00852185
0.0112502
0.288624
0.176682
0.00680543
0.0978188
0.234192
0.29178
0.134195
-0.00868462
0.248789
0.296274
0.209566
0.220648
0.194352
0.158687
0.000243273
-0.000745737
-6.53776e-05
0.00367574
-0.00469393
0.240111
0.222546
0.0269522
0.242616
-0.00250212
-0.00102645
7.91169e-05
0.0298491
0.238685
0.0341123
0.0788508
-0.00057744
-0.000967959
4.01249e-05
0.0410095
0.23123
0.00487206
0.0166168
0.280699
0.248004
0.230145
-0.00905925
0.0173867
-0.000121096
0.280151
0.240291
0.00129416
0.0171121
0.000688821
0.274259
0.119646
0.168512
0.107004
0.0387707
-0.00706706
-0.000542535
0.0004794
0.228589
0
-0.000164368
0.0659017
-0.00476096
0.0280853
-0.00336349
0.0110972
0.212936
0.0542256
-0.00415985
-0.000595875
0.0219384
0.00298404
0.0134116
0.0730314
0.240548
0.209918
0.0148061
0.0238322
0.000206357
-0.00971828
0.0215462
0.0167115
0.0236988
0.217817
0.112432
0.00213801
0.222159
0.0406334
0.0355578
-0.000109476
-4.63405e-06
0.253045
0.000548507
0.00315639
0.252434
0.0536145
0.0340791
0.171585
0.221558
0.156891
0.18464
0.197422
0.230867
0.0261887
1.10269e-05
0.163076
0.0132636
0.0684629
0.000653304
0.257649
0.0337907
0.0011485
-0.0166257
0.259255
0.123941
0.00896447
0.145865
0.169172
0.0423937
0.00259156
-0.00178781
5.35006e-06
0.236265
0.0266262
-0.00226114
-0.00251055
0
0.190434
0.00579475
0.0339876
0.174862
0.095191
0.129924
-0.00152481
-0.0024385
0.00178894
1.46979e-05
0.200507
-0.0025467
-0.00602095
-0.0149214
-0.000924982
0.255925
0.0214512
0.200222
-0.0109466
0.251508
0.264116
0.0457761
0.000207635
-0.000226535
0.00016093
-0.000105301
0.0126234
-5.47399e-05
0.000954231
3.06369e-06
0.000374359
0.000163356
-0.000278098
2.08472e-05
0.231585
6.54146e-06
0.00235233
0.00734462
4.03384e-05
-1.82564e-05
-0.00336379
5.79162e-05
-0.000321073
0.000786207
0.000330929
0.000866052
-0.000419902
7.45233e-06
0.000720356
1.59894e-06
0.00447168
-2.06075e-05
0.00115949
-5.18608e-05
-6.88932e-06
-2.03951e-05
2.46692e-05
1.77715e-05
-0.00276727
-2.019e-05
0.000443273
2.83652e-06
4.99678e-05
-0.000146384
0.00393895
0.00319718
-0.000793669
-9.34802e-06
-0.00160837
-0.00312898
0.000957952
0.120354
5.26531e-05
0.00189788
-0.000355082
0.000834998
0.000499474
-3.9932e-05
-0.000377374
-0.000887195
-0.000198466
0.000140569
0.000147855
0.00137042
1.36794e-05
8.79941e-05
0.000685396
-0.00237047
0.00169809
0.000727389
-7.20621e-05
0.176003
-6.08577e-06
0.00188622
0.00111099
0.000568223
-4.23948e-05
-0.0011327
-4.77129e-06
2.25585e-05
-4.13079e-06
-0.00228451
-0.00013478
-0.00125587
-2.66448e-05
0.000248768
-7.64292e-06
-1.05714e-05
-9.75274e-06
0.000839968
-0.000756513
-0.000101074
2.49605e-05
0.00293209
0.00115433
0.232844
1.30596e-05
-0.00154162
6.65613e-05
0.00223779
-0.000242559
-0.000196231
-0.00117424
-4.19862e-05
0.00303718
-0.000820779
-0.000129193
-0.00373922
-0.000113625
0.00266424
-0.000713459
-0.00149875
-0.000106458
0.041091
-0.000420202
0.00157068
0.000704507
-0.000344087
0.000837234
-7.72448e-05
0.000214827
-0.000761074
-1.27486e-06
-0.00353419
0.0498044
-1.65281e-05
-0.00168603
0.00353404
-0.000590998
-4.19685e-06
-2.39105e-05
-0.000107636
-0.00307112
-6.9033e-05
9.16291e-05
0.00365103
2.01803e-05
3.04077e-05
-9.66911e-05
0.000985367
0.217638
3.38006e-06
-0.00336506
6.04677e-05
0.240064
5.88e-06
6.13288e-05
3.30298e-06
-0.00300886
3.286e-05
5.33365e-06
3.21477e-06
1.37642e-05
0.000812313
-6.17905e-06
0.00433412
2.84554e-06
0.000362693
0.000114939
0.00370641
0.0002054
0.000675575
-0.000755702
0.000158033
-0.00022825
0.00209901
0.000180506
-0.000181431
-0.00296644
-8.5079e-05
0.00203975
0.000815094
0.000418537
0.000836991
-0.000186601
-0.00155578
3.13225e-05
-0.00178336
0.000907396
0.000680755
-0.00105161
-0.00010609
-0.000739836
-0.00027038
0.000434588
0.00104901
-0.000366765
-0.000596149
-1.32009e-05
0.000100067
-3.42464e-05
-0.00421464
8.24608e-05
-0.00265675
0.000210683
-1.22806e-06
-0.00031949
0.00135312
0.000135448
0.000187614
-0.000227715
-2.41131e-05
0.0011266
-0.00117476
-6.57945e-08
0.000520137
0.00345904
0.000335429
8.70482e-05
0.000200432
0.000270835
-0.000405208
0.000676801
0.000364083
0.000126015
0.0218624
0.000242289
-0.000414428
-0.0002576
-4.32625e-05
-0.00050019
0.00110917
-9.27178e-06
-0.000284178
0.0118245
-5.94723e-05
0.00133223
-0.000246567
-2.8877e-05
-0.000354158
-0.000411824
6.726e-05
0
0.0333469
-8.96606e-05
-0.000199294
-0.00351993
3.74869e-07
0.000707271
0.00650362
-0.000749116
-0.000314411
2.88796e-05
-0.0154778
0.00182946
0.0013295
-0.000617467
-9.79998e-05
-0.000778184
0.00204563
-0.00145796
1.43404e-05
0.0134583
-0.00207877
0.00162189
0.000229133
-1.56148e-05
3.49244e-05
0.000934137
0.000148843
-0.0013548
-0.000172813
-0.000624886
0.000458195
0.000188543
0.00981597
-0.000527199
0.000486322
-0.000137738
-0.00024678
0.000520669
-1.4074e-06
0.000625328
0.000538323
-0.000529306
-0.00122285
-2.03172e-05
-0.000496181
2.85019e-05
0.0166437
0.000116746
-0.00210547
5.68295e-05
0.000265397
-8.92613e-05
-0.00369335
-0.000295371
-0.000517822
-2.87021e-06
-0.000237659
-0.000132897
-0.00230079
3.06445e-05
-0.00048704
0.000437025
-0.000772397
0.000207152
-0.00129811
-0.000660605
-0.000476108
4.70581e-06
0.0110969
-0.000280746
0.000433417
-0.00124525
2.54655e-05
-0.000311711
-0.00105691
-0.000102859
-2.28816e-06
-0.000370989
-0.000303841
4.716e-05
0.0167924
0.000174608
-0.000514571
-1.20011e-05
-0.000705265
0.000201686
-0.000232955
6.17472e-05
-8.46001e-05
0.0192129
3.22511e-05
0.00208456
0.00216513
-2.11807e-05
-0.00567219
0.000627212
8.8875e-05
0.000731672
3.66696e-06
-0.000313504
0.00161084
-0.000525425
0.0949091
0.00145693
0.0916735
-2.22412e-05
0.00117845
9.38649e-05
0.191997
4.52881e-06
-0.00272013
-0.000290547
5.86064e-06
-0.00123922
0.0918929
0
0.00112272
-0.000178568
0.000358617
0.00424493
-0.000241843
4.37165e-06
0.000299917
8.21629e-06
2.36379e-05
4.28899e-05
0.000168221
0
0.00293618
3.20252e-05
0.00157513
0.0010537
-6.38335e-05
-0.00473808
9.70059e-05
-3.6761e-05
0.0238186
-0.000266505
-0.00130646
-0.000744994
-7.32871e-06
6.55731e-06
-0.00316953
0.000139734
-0.000457884
0
-5.47045e-05
1.73045e-05
-0.00172058
-2.73021e-05
-1.65203e-06
0.0011616
-0.000663042
3.33289e-05
0.00010591
-0.0027937
0.000211496
-0.000667213
1.80726e-05
-0.000555339
-7.40719e-06
0.0046597
5.9547e-05
0.000244199
-7.95165e-05
0.000470688
0.000383678
0.199322
1.7671e-05
-0.000119504
7.99007e-07
4.17625e-06
-0.0028115
7.02985e-05
0.000620981
-0.000154115
-0.000422694
5.03073e-05
-0.000492637
0.00673553
0.00120144
-1.2853e-06
0.0062404
-0.000663139
0.00055648
-0.00659251
7.70542e-05
0.128827
-3.90072e-05
-5.38713e-05
-0.0015143
0.000353683
0
-0.00125586
0.000363582
-0.00107532
0.00360532
-0.000387037
-0.00274019
-0.000307447
-0.000239785
-0.000704039
-0.000607532
0
0.00248527
-0.000107136
0
0.000548548
7.65861e-07
0.00011511
-0.00396622
0.00104355
0
-0.000287916
0.203357
0.00609686
0.00286543
-0.00137396
0.00181756
-2.5577e-07
0.00205929
-0.00231507
0
0.00236319
0.00140321
-0.00105662
-9.97749e-05
0.00772187
-0.00494147
0.000729291
-0.000678441
-0.000183849
0.00166591
0.0010759
0.000169377
-0.000972908
0.000369051
9.85141e-05
-0.00441948
0.0150338
2.53355e-05
-3.79455e-05
-0.000632039
-4.70875e-06
-8.44894e-07
0.000382331
-0.00413216
-0.000175849
-1.45775e-05
0.00571155
1.89726e-05
0.00568435
2.94742e-05
5.65817e-05
-0.0041875
-0.000323594
0.00031465
-2.33545e-05
0.00284645
0.09345
0.000285101
-0.000330947
0.0999571
7.5541e-07
-0.00627095
1.50016e-05
0.00412362
-6.25227e-05
-0.000104989
0.0295317
0.000772753
-3.94434e-05
0.015821
0.00325543
0.000182301
9.13826e-05
-1.11781e-06
0.000284478
0.152526
2.89946e-06
6.0273e-05
0.0843451
-1.8189e-05
0.00287345
0.00148654
0.021096
-0.00105552
0.0031783
0.0880611
-0.00119883
5.07627e-05
0.000106308
-0.00825553
-0.000213174
0.189597
-9.09289e-06
-0.00187188
-7.83277e-05
0.00054183
0.00676315
0.0113301
-0.000498987
0.000303921
-1.56816e-06
-0.0039643
-0.000622144
-9.16605e-06
-0.00113755
-3.40237e-06
-0.00471576
-0.00252629
-0.000212712
-0.000145485
-0.00299137
-0.00188947
-7.3269e-06
0.0130034
0.000154169
0.00128713
-2.04747e-05
-0.000508273
2.06378e-05
-6.5535e-06
-0.00118917
0.00559497
0.000196641
-0.000267679
-0.000139428
0.176562
1.7669e-05
0.00251369
0.00104815
0
-9.51553e-06
-0.00221911
0.216394
-6.88307e-05
0.000848346
-5.06056e-05
0.00639455
-0.00278815
-0.000146636
0.000104017
-0.000107864
0.00405098
0.0734259
-1.44003e-05
5.01224e-05
2.87045e-05
3.0569e-08
0.000348797
9.50636e-06
0.00236147
2.93973e-06
8.57173e-05
4.59529e-06
0.00032875
-1.04859e-06
-0.00367032
-1.46953e-06
-1.96934e-05
0.000351792
9.43033e-06
0.000881431
0.000415658
-3.85602e-05
-6.97874e-06
-5.54715e-07
-4.77837e-05
-0.000483149
-0.000277475
-0.0065679
-0.00229772
0.0018723
-1.12174e-05
-0.000700948
2.23283e-05
6.39277e-07
-2.18946e-05
0.00119186
-0.000267197
0
-0.00113395
0.000827857
-3.4926e-06
0.00135451
0.00203267
0.0279563
0.0011076
-0.00105613
-1.57777e-05
-0.00420007
-0.00020196
4.6146e-05
0.00173007
-0.00171919
0.00269346
0.0827689
0.00275983
-0.000384916
-0.0042243
-0.00183336
-2.31654e-06
-0.00330765
-0.000551494
0.000281352
5.54488e-06
0.00219484
0.00209189
-7.92768e-06
0.00274485
0.00135838
1.74261e-06
0.00788454
-0.000502912
9.62411e-05
-0.00182647
0.0042079
0.0203054
-0.000952774
0.000467996
1.17561e-06
-0.000364642
1.59416e-05
0.00223438
0.0181488
0.000950697
0.00125639
0.000418016
0
-0.000577188
0.0247883
-0.000172283
4.52571e-06
-0.00210695
-8.22805e-06
-0.0017415
-0.000623367
-0.00533519
-0.000356556
-0.00303023
8.4687e-06
0.118036
-0.00427814
-0.00299327
-3.4371e-06
0.00898173
-0.0084848
4.81438e-05
5.75397e-06
-0.000765528
0.00141463
-0.00101265
-0.00720742
-0.00146579
-0.000204803
-0.00128106
0.00122435
3.02106e-05
-1.46263e-05
-0.000491969
1.53572e-06
0.00550135
0.000269887
0.174529
3.51439e-06
-0.0032502
0.000300059
-0.00141922
0.000198303
0.0607982
-0.0133469
0.0331715
-0.00320064
0.00339021
0.0114129
0.000452795
0
-0.000156105
-1.86635e-06
-4.55466e-05
-0.000867696
0.000421733
0.0146204
0.024909
0.0008064
-0.0150049
0.0136071
-0.00161529
0.00222083
0.00956772
0.0020622
0.218692
-0.000784756
0.000733342
-0.00321554
0.000560956
0.000233237
0.0760781
-0.00121098
-0.00403273
0.0457807
0.00130796
-0.0153658
0.0392369