# vtk DataFile Version 2.0
Unstructured Grid by M++
ASCII
DATASET UNSTRUCTURED_GRID
POINTS 81 float
  1.000000   0.625000 0
  0.750000   0.375000 0
  1.000000   0.000000 0
  0.875000   0.875000 0
  0.750000   0.125000 0
  1.000000   1.000000 0
  0.875000   0.250000 0
  0.625000   0.875000 0
  1.000000   0.750000 0
  0.875000   0.000000 0
  1.000000   0.250000 0
  0.625000   0.375000 0
  0.875000   0.500000 0
  0.625000   0.625000 0
  1.000000   0.500000 0
  0.750000   0.500000 0
  0.750000   1.000000 0
  1.000000   0.125000 0
  0.625000   0.250000 0
  0.750000   0.750000 0
  0.625000   0.000000 0
  0.125000   0.375000 0
  0.000000   0.500000 0
  0.125000   0.625000 0
  0.625000   1.000000 0
  1.000000   0.875000 0
  0.875000   0.125000 0
  0.500000   0.250000 0
  0.625000   0.500000 0
  0.250000   0.625000 0
  0.000000   0.625000 0
  0.375000   0.500000 0
  0.375000   0.000000 0
  0.000000   0.125000 0
  0.125000   0.875000 0
  0.875000   1.000000 0
  0.750000   0.250000 0
  0.375000   0.375000 0
  0.250000   0.375000 0
  0.625000   0.750000 0
  0.125000   0.125000 0
  0.500000   0.000000 0
  0.250000   0.875000 0
  0.125000   0.500000 0
  0.500000   0.375000 0
  0.125000   0.000000 0
  0.250000   0.750000 0
  0.250000   0.500000 0
  0.000000   0.875000 0
  0.875000   0.625000 0
  0.500000   0.750000 0
  0.750000   0.625000 0
  0.250000   0.000000 0
  0.375000   0.750000 0
  0.750000   0.875000 0
  0.625000   0.125000 0
  0.250000   0.250000 0
  0.375000   1.000000 0
  0.375000   0.250000 0
  0.000000   0.375000 0
  0.500000   1.000000 0
  0.875000   0.750000 0
  0.750000   0.000000 0
  0.375000   0.125000 0
  0.500000   0.875000 0
  0.000000   0.000000 0
  0.125000   0.750000 0
  0.500000   0.625000 0
  0.125000   0.250000 0
  0.500000   0.125000 0
  0.250000   1.000000 0
  0.250000   0.125000 0
  0.000000   1.000000 0
  0.375000   0.875000 0
  0.000000   0.750000 0
  0.375000   0.625000 0
  0.000000   0.250000 0
  0.125000   1.000000 0
  1.000000   0.375000 0
  0.500000   0.500000 0
  0.875000   0.375000 0
CELLS 64 320
4 56 71 58 63
4 27 58 69 63
4 41 69 32 63
4 76 33 68 40
4 27 44 58 37
4 79 31 44 37
4 56 38 68 21
4 56 58 38 37
4 52 32 71 63
4 47 38 31 37
4 76 68 59 21
4 22 59 43 21
4 65 45 33 40
4 47 43 38 21
4 52 71 45 40
4 56 68 71 40
4 74 30 66 23
4 46 66 29 23
4 22 43 30 23
4 72 48 77 34
4 46 53 42 73
4 50 64 53 73
4 70 42 57 73
4 74 66 48 34
4 46 42 66 34
4 47 29 43 23
4 70 77 42 34
4 60 57 64 73
4 79 67 31 75
4 47 31 29 75
4 50 53 67 75
4 46 29 53 75
4 10 78 6 80
4 36 6 1 80
4 15 1 12 80
4 36 4 6 26
4 14 12 78 80
4 2 17 9 26
4 36 18 4 55
4 15 28 1 11
4 62 4 20 55
4 10 6 17 26
4 27 18 44 11
4 62 9 4 26
4 27 69 18 55
4 36 1 18 11
4 41 20 69 55
4 79 44 28 11
4 16 24 54 7
4 19 54 39 7
4 50 39 64 7
4 8 25 61 3
4 60 64 24 7
4 79 28 67 13
4 19 51 61 49
4 8 61 0 49
4 15 51 28 13
4 19 39 51 13
4 50 67 39 13
4 19 61 54 3
4 14 0 12 49
4 5 35 25 3
4 15 12 51 49
4 16 54 35 3
CELL_TYPES 64
8
8
8
8
8
8
8
8
8
8
8
8
8
8
8
8
8
8
8
8
8
8
8
8
8
8
8
8
8
8
8
8
8
8
8
8
8
8
8
8
8
8
8
8
8
8
8
8
8
8
8
8
8
8
8
8
8
8
8
8
8
8
8
8
CELL_DATA 64
VECTORS vector_value float
-0.891695 -2.03071 0
0.0781845 -2.10271 0
0.121372 -1.09402 0
-0.503633 -1.98328 0
-0.451411 -3.67696 0
-0.0332117 -3.45821 0
-0.832645 -0.753078 0
-0.670726 -1.66181 0
-0.0834098 -1.8936 0
-0.131054 -2.60512 0
-0.327225 -1.16016 0
-0.0454542 -0.713476 0
-0.103669 -2.59932 0
-0.136692 -0.391412 0
-0.1147 -0.637019 0
-0.961961 -0.872414 0
0.137687 -0.856629 0
1.07904 -2.36773 0
-0.041656 -0.577015 0
0.194337 -0.643655 0
-0.228664 -0.804582 0
-0.12525 -0.506386 0
-1.17703 -1.08608 0
-0.127323 -0.806775 0
-0.468736 -2.70072 0
0.258239 -0.789929 0
-0.259486 -1.86331 0
-0.980522 -0.865185 0
-0.573855 -2.02821 0
1.09988 -2.73448 0
-0.192025 -0.892092 0
0.385664 -1.04938 0
0.00149622 -0.0631853 0
0.00773983 -0.0734732 0
-0.00587462 -0.0551169 0
0.126585 -0.216556 0
-0.00142581 -0.0591293 0
0.00984812 -0.113525 0
0.332461 -0.346554 0
-0.138561 -0.332776 0
0.312851 -0.49499 0
0.0166096 -0.0881792 0
0.137511 -0.48598 0
0.133062 -0.451709 0
0.283047 -0.359597 0
0.0186091 -0.125351 0
0.549351 -0.715817 0
-0.161853 -0.384757 0
-0.460317 -0.467788 0
-0.596745 -0.909796 0
-0.229488 -1.02603 0
-0.128211 -0.692711 0
-0.73369 -1.10621 0
-1.17789 -1.10822 0
-0.346539 -0.314317 0
-0.10381 -0.38131 0
-0.493206 -0.458787 0
-0.610221 -0.795265 0
-0.657297 -1.34328 0
-0.513098 -0.553009 0
-0.118341 -0.183361 0
-0.117762 -1.1935 0
-0.285223 -0.119992 0
-0.255094 -0.774284 0
