# vtk DataFile Version 2.0
Unstructured Grid by M++
ASCII
DATASET UNSTRUCTURED_GRID
POINTS 81 float
  1.000000   0.625000 0
  0.750000   0.375000 0
  1.000000   0.000000 0
  0.875000   0.875000 0
  0.750000   0.125000 0
  1.000000   1.000000 0
  0.875000   0.250000 0
  0.625000   0.875000 0
  1.000000   0.750000 0
  0.875000   0.000000 0
  1.000000   0.250000 0
  0.625000   0.375000 0
  0.875000   0.500000 0
  0.625000   0.625000 0
  1.000000   0.500000 0
  0.750000   0.500000 0
  0.750000   1.000000 0
  1.000000   0.125000 0
  0.625000   0.250000 0
  0.750000   0.750000 0
  0.625000   0.000000 0
  0.125000   0.375000 0
  0.000000   0.500000 0
  0.125000   0.625000 0
  0.625000   1.000000 0
  1.000000   0.875000 0
  0.875000   0.125000 0
  0.500000   0.250000 0
  0.625000   0.500000 0
  0.250000   0.625000 0
  0.000000   0.625000 0
  0.375000   0.500000 0
  0.375000   0.000000 0
  0.000000   0.125000 0
  0.125000   0.875000 0
  0.875000   1.000000 0
  0.750000   0.250000 0
  0.375000   0.375000 0
  0.250000   0.375000 0
  0.625000   0.750000 0
  0.125000   0.125000 0
  0.500000   0.000000 0
  0.250000   0.875000 0
  0.125000   0.500000 0
  0.500000   0.375000 0
  0.125000   0.000000 0
  0.250000   0.750000 0
  0.250000   0.500000 0
  0.000000   0.875000 0
  0.875000   0.625000 0
  0.500000   0.750000 0
  0.750000   0.625000 0
  0.250000   0.000000 0
  0.375000   0.750000 0
  0.750000   0.875000 0
  0.625000   0.125000 0
  0.250000   0.250000 0
  0.375000   1.000000 0
  0.375000   0.250000 0
  0.000000   0.375000 0
  0.500000   1.000000 0
  0.875000   0.750000 0
  0.750000   0.000000 0
  0.375000   0.125000 0
  0.500000   0.875000 0
  0.000000   0.000000 0
  0.125000   0.750000 0
  0.500000   0.625000 0
  0.125000   0.250000 0
  0.500000   0.125000 0
  0.250000   1.000000 0
  0.250000   0.125000 0
  0.000000   1.000000 0
  0.375000   0.875000 0
  0.000000   0.750000 0
  0.375000   0.625000 0
  0.000000   0.250000 0
  0.125000   1.000000 0
  1.000000   0.375000 0
  0.500000   0.500000 0
  0.875000   0.375000 0
CELLS 64 320
4 56 71 58 63
4 27 58 69 63
4 41 69 32 63
4 76 33 68 40
4 27 44 58 37
4 79 31 44 37
4 56 38 68 21
4 56 58 38 37
4 52 32 71 63
4 47 38 31 37
4 76 68 59 21
4 22 59 43 21
4 65 45 33 40
4 47 43 38 21
4 52 71 45 40
4 56 68 71 40
4 74 30 66 23
4 46 66 29 23
4 22 43 30 23
4 72 48 77 34
4 46 53 42 73
4 50 64 53 73
4 70 42 57 73
4 74 66 48 34
4 46 42 66 34
4 47 29 43 23
4 70 77 42 34
4 60 57 64 73
4 79 67 31 75
4 47 31 29 75
4 50 53 67 75
4 46 29 53 75
4 10 78 6 80
4 36 6 1 80
4 15 1 12 80
4 36 4 6 26
4 14 12 78 80
4 2 17 9 26
4 36 18 4 55
4 15 28 1 11
4 62 4 20 55
4 10 6 17 26
4 27 18 44 11
4 62 9 4 26
4 27 69 18 55
4 36 1 18 11
4 41 20 69 55
4 79 44 28 11
4 16 24 54 7
4 19 54 39 7
4 50 39 64 7
4 8 25 61 3
4 60 64 24 7
4 79 28 67 13
4 19 51 61 49
4 8 61 0 49
4 15 51 28 13
4 19 39 51 13
4 50 67 39 13
4 19 61 54 3
4 14 0 12 49
4 5 35 25 3
4 15 12 51 49
4 16 54 35 3
CELL_TYPES 64
8
8
8
8
8
8
8
8
8
8
8
8
8
8
8
8
8
8
8
8
8
8
8
8
8
8
8
8
8
8
8
8
8
8
8
8
8
8
8
8
8
8
8
8
8
8
8
8
8
8
8
8
8
8
8
8
8
8
8
8
8
8
8
8
CELL_DATA 64
VECTORS vector_value float
1.44132 -0.660955 0
1.80613 -2.6847 0
0.0204712 -2.15039 0
0.0185669 -0.727409 0
-0.0633383 -1.56091 0
-0.106985 -0.476259 0
1.09368 -1.70714 0
0.735305 -0.842988 0
0.00436644 -0.261224 0
-0.278483 -1.07585 0
0.46253 -1.08891 0
0.374765 -2.3182 0
-0.00178474 -0.802633 0
0.090407 -0.631767 0
0.00155955 -0.388478 0
0.491885 -0.961224 0
-0.556995 -2.11913 0
-0.599066 -0.407412 0
-0.0431672 -2.52579 0
-0.167996 -1.3011 0
-0.179098 -0.0975696 0
-1.08725 -2.53041 0
0.291328 -0.369416 0
0.0124675 -1.26402 0
-0.267899 -0.969119 0
-0.0932208 -0.271386 0
-0.213957 -0.756468 0
0.409372 -1.21715 0
-0.0197922 -1.2849 0
-0.322283 -0.689222 0
0.0172755 -3.07176 0
-0.513453 -0.264583 0
0.231856 -0.402975 0
0.487602 -0.457798 0
-0.0319977 -0.482862 0
0.359436 -0.631286 0
-0.00479345 -0.120904 0
0.164602 -1.20252 0
0.195734 -0.374852 0
-0.216729 -1.19984 0
0.199792 -1.07167 0
0.168346 -0.759035 0
-0.341626 -1.09724 0
0.0297502 -0.131119 0
0.987393 -1.20054 0
0.320234 -0.842034 0
0.258868 -1.99196 0
-0.161496 -1.69432 0
-0.843244 -0.947477 0
0.0418225 -0.102297 0
-0.801731 -1.42613 0
0.0781193 -1.21139 0
-0.760192 -1.69507 0
0.655601 -1.25495 0
0.0139558 -0.0905193 0
-0.271159 -1.5685 0
-0.300583 -0.684885 0
0.00575189 -0.0896953 0
0.107625 -0.388405 0
0.207573 -0.399075 0
-0.290229 -0.545891 0
0.0519542 -0.716515 0
-1.16718 -0.742985 0
-0.126098 -0.996799 0
