# vtk DataFile Version 2.0
Unstructured Grid by M++
ASCII
DATASET UNSTRUCTURED_GRID
POINTS 81 float
  1.000000   0.625000 0
  0.750000   0.375000 0
  1.000000   0.000000 0
  0.875000   0.875000 0
  0.750000   0.125000 0
  1.000000   1.000000 0
  0.875000   0.250000 0
  0.625000   0.875000 0
  1.000000   0.750000 0
  0.875000   0.000000 0
  1.000000   0.250000 0
  0.625000   0.375000 0
  0.875000   0.500000 0
  0.625000   0.625000 0
  1.000000   0.500000 0
  0.750000   0.500000 0
  0.750000   1.000000 0
  1.000000   0.125000 0
  0.625000   0.250000 0
  0.750000   0.750000 0
  0.625000   0.000000 0
  0.125000   0.375000 0
  0.000000   0.500000 0
  0.125000   0.625000 0
  0.625000   1.000000 0
  1.000000   0.875000 0
  0.875000   0.125000 0
  0.500000   0.250000 0
  0.625000   0.500000 0
  0.250000   0.625000 0
  0.000000   0.625000 0
  0.375000   0.500000 0
  0.375000   0.000000 0
  0.000000   0.125000 0
  0.125000   0.875000 0
  0.875000   1.000000 0
  0.750000   0.250000 0
  0.375000   0.375000 0
  0.250000   0.375000 0
  0.625000   0.750000 0
  0.125000   0.125000 0
  0.500000   0.000000 0
  0.250000   0.875000 0
  0.125000   0.500000 0
  0.500000   0.375000 0
  0.125000   0.000000 0
  0.250000   0.750000 0
  0.250000   0.500000 0
  0.000000   0.875000 0
  0.875000   0.625000 0
  0.500000   0.750000 0
  0.750000   0.625000 0
  0.250000   0.000000 0
  0.375000   0.750000 0
  0.750000   0.875000 0
  0.625000   0.125000 0
  0.250000   0.250000 0
  0.375000   1.000000 0
  0.375000   0.250000 0
  0.000000   0.375000 0
  0.500000   1.000000 0
  0.875000   0.750000 0
  0.750000   0.000000 0
  0.375000   0.125000 0
  0.500000   0.875000 0
  0.000000   0.000000 0
  0.125000   0.750000 0
  0.500000   0.625000 0
  0.125000   0.250000 0
  0.500000   0.125000 0
  0.250000   1.000000 0
  0.250000   0.125000 0
  0.000000   1.000000 0
  0.375000   0.875000 0
  0.000000   0.750000 0
  0.375000   0.625000 0
  0.000000   0.250000 0
  0.125000   1.000000 0
  1.000000   0.375000 0
  0.500000   0.500000 0
  0.875000   0.375000 0
CELLS 64 320
4 56 71 58 63
4 27 58 69 63
4 41 69 32 63
4 76 33 68 40
4 27 44 58 37
4 79 31 44 37
4 56 38 68 21
4 56 58 38 37
4 52 32 71 63
4 47 38 31 37
4 76 68 59 21
4 22 59 43 21
4 65 45 33 40
4 47 43 38 21
4 52 71 45 40
4 56 68 71 40
4 74 30 66 23
4 46 66 29 23
4 22 43 30 23
4 72 48 77 34
4 46 53 42 73
4 50 64 53 73
4 70 42 57 73
4 74 66 48 34
4 46 42 66 34
4 47 29 43 23
4 70 77 42 34
4 60 57 64 73
4 79 67 31 75
4 47 31 29 75
4 50 53 67 75
4 46 29 53 75
4 10 78 6 80
4 36 6 1 80
4 15 1 12 80
4 36 4 6 26
4 14 12 78 80
4 2 17 9 26
4 36 18 4 55
4 15 28 1 11
4 62 4 20 55
4 10 6 17 26
4 27 18 44 11
4 62 9 4 26
4 27 69 18 55
4 36 1 18 11
4 41 20 69 55
4 79 44 28 11
4 16 24 54 7
4 19 54 39 7
4 50 39 64 7
4 8 25 61 3
4 60 64 24 7
4 79 28 67 13
4 19 51 61 49
4 8 61 0 49
4 15 51 28 13
4 19 39 51 13
4 50 67 39 13
4 19 61 54 3
4 14 0 12 49
4 5 35 25 3
4 15 12 51 49
4 16 54 35 3
CELL_TYPES 64
8
8
8
8
8
8
8
8
8
8
8
8
8
8
8
8
8
8
8
8
8
8
8
8
8
8
8
8
8
8
8
8
8
8
8
8
8
8
8
8
8
8
8
8
8
8
8
8
8
8
8
8
8
8
8
8
8
8
8
8
8
8
8
8
CELL_DATA 64
VECTORS vector_value float
-0.0393523 -0.147964 0
-0.296171 -2.15128 0
-0.182651 -2.34291 0
0.0350253 -0.561052 0
-0.235202 -1.58086 0
0.302153 -2.47634 0
-0.0503052 -0.0815213 0
-0.0225375 -0.105393 0
-0.121922 -0.370159 0
-0.139761 -0.205826 0
-0.0155622 -0.561057 0
-0.134141 -0.475992 0
0.0336339 -0.446284 0
-0.141421 -0.018975 0
0.0475012 -0.220895 0
0.0108838 -0.0875662 0
-0.0499977 -0.158841 0
-0.0293554 -0.143292 0
-0.0470507 -0.2439 0
0.467888 -0.456382 0
0.110958 -0.625516 0
0.958856 -1.38029 0
1.82784 -1.30152 0
-0.00733155 -0.0631327 0
-0.0297331 -0.216435 0
-0.177133 -0.142243 0
1.32075 -0.62865 0
1.43736 -1.02859 0
-0.78778 -1.96024 0
0.00478986 -0.31169 0
0.0641986 -0.466059 0
0.00740728 -0.507151 0
-0.0892348 -0.41503 0
-0.621118 -0.884736 0
-0.642897 -1.09159 0
-0.0330183 -0.370681 0
-0.460854 -0.971941 0
-0.00193273 -0.400986 0
-0.488972 -2.16226 0
-0.246495 -1.07382 0
-0.0851606 -1.32872 0
-0.00210346 -0.416235 0
-0.158611 -2.29833 0
-0.00385812 -0.362501 0
-0.542403 -2.10296 0
-0.542052 -2.07307 0
-0.299899 -2.52754 0
0.0463856 -1.68552 0
0.45276 -1.24198 0
0.283093 -0.524694 0
0.725199 -2.30215 0
0.234106 -1.82081 0
0.750403 -1.42212 0
-0.84895 -1.77036 0
-0.406579 -0.897005 0
-0.0850155 -1.88611 0
-0.399518 -1.39284 0
-0.060002 -1.04631 0
0.133869 -2.89523 0
0.679333 -1.06698 0
-0.116097 -1.67234 0
0.221303 -1.35218 0
-0.139162 -0.506396 0
0.248893 -0.568583 0
