# vtk DataFile Version 2.0
Unstructured Grid by M++
ASCII
DATASET UNSTRUCTURED_GRID
POINTS 81 float
  1.000000   0.625000 0
  0.750000   0.375000 0
  1.000000   0.000000 0
  0.875000   0.875000 0
  0.750000   0.125000 0
  1.000000   1.000000 0
  0.875000   0.250000 0
  0.625000   0.875000 0
  1.000000   0.750000 0
  0.875000   0.000000 0
  1.000000   0.250000 0
  0.625000   0.375000 0
  0.875000   0.500000 0
  0.625000   0.625000 0
  1.000000   0.500000 0
  0.750000   0.500000 0
  0.750000   1.000000 0
  1.000000   0.125000 0
  0.625000   0.250000 0
  0.750000   0.750000 0
  0.625000   0.000000 0
  0.125000   0.375000 0
  0.000000   0.500000 0
  0.125000   0.625000 0
  0.625000   1.000000 0
  1.000000   0.875000 0
  0.875000   0.125000 0
  0.500000   0.250000 0
  0.625000   0.500000 0
  0.250000   0.625000 0
  0.000000   0.625000 0
  0.375000   0.500000 0
  0.375000   0.000000 0
  0.000000   0.125000 0
  0.125000   0.875000 0
  0.875000   1.000000 0
  0.750000   0.250000 0
  0.375000   0.375000 0
  0.250000   0.375000 0
  0.625000   0.750000 0
  0.125000   0.125000 0
  0.500000   0.000000 0
  0.250000   0.875000 0
  0.125000   0.500000 0
  0.500000   0.375000 0
  0.125000   0.000000 0
  0.250000   0.750000 0
  0.250000   0.500000 0
  0.000000   0.875000 0
  0.875000   0.625000 0
  0.500000   0.750000 0
  0.750000   0.625000 0
  0.250000   0.000000 0
  0.375000   0.750000 0
  0.750000   0.875000 0
  0.625000   0.125000 0
  0.250000   0.250000 0
  0.375000   1.000000 0
  0.375000   0.250000 0
  0.000000   0.375000 0
  0.500000   1.000000 0
  0.875000   0.750000 0
  0.750000   0.000000 0
  0.375000   0.125000 0
  0.500000   0.875000 0
  0.000000   0.000000 0
  0.125000   0.750000 0
  0.500000   0.625000 0
  0.125000   0.250000 0
  0.500000   0.125000 0
  0.250000   1.000000 0
  0.250000   0.125000 0
  0.000000   1.000000 0
  0.375000   0.875000 0
  0.000000   0.750000 0
  0.375000   0.625000 0
  0.000000   0.250000 0
  0.125000   1.000000 0
  1.000000   0.375000 0
  0.500000   0.500000 0
  0.875000   0.375000 0
CELLS 64 320
4 56 71 58 63
4 27 58 69 63
4 41 69 32 63
4 76 33 68 40
4 27 44 58 37
4 79 31 44 37
4 56 38 68 21
4 56 58 38 37
4 52 32 71 63
4 47 38 31 37
4 76 68 59 21
4 22 59 43 21
4 65 45 33 40
4 47 43 38 21
4 52 71 45 40
4 56 68 71 40
4 74 30 66 23
4 46 66 29 23
4 22 43 30 23
4 72 48 77 34
4 46 53 42 73
4 50 64 53 73
4 70 42 57 73
4 74 66 48 34
4 46 42 66 34
4 47 29 43 23
4 70 77 42 34
4 60 57 64 73
4 79 67 31 75
4 47 31 29 75
4 50 53 67 75
4 46 29 53 75
4 10 78 6 80
4 36 6 1 80
4 15 1 12 80
4 36 4 6 26
4 14 12 78 80
4 2 17 9 26
4 36 18 4 55
4 15 28 1 11
4 62 4 20 55
4 10 6 17 26
4 27 18 44 11
4 62 9 4 26
4 27 69 18 55
4 36 1 18 11
4 41 20 69 55
4 79 44 28 11
4 16 24 54 7
4 19 54 39 7
4 50 39 64 7
4 8 25 61 3
4 60 64 24 7
4 79 28 67 13
4 19 51 61 49
4 8 61 0 49
4 15 51 28 13
4 19 39 51 13
4 50 67 39 13
4 19 61 54 3
4 14 0 12 49
4 5 35 25 3
4 15 12 51 49
4 16 54 35 3
CELL_TYPES 64
8
8
8
8
8
8
8
8
8
8
8
8
8
8
8
8
8
8
8
8
8
8
8
8
8
8
8
8
8
8
8
8
8
8
8
8
8
8
8
8
8
8
8
8
8
8
8
8
8
8
8
8
8
8
8
8
8
8
8
8
8
8
8
8
CELL_DATA 64
VECTORS vector_value float
-0.508352 -0.762115 0
-1.27574 -0.43881 0
-0.188237 -0.952446 0
0.00759396 -1.23919 0
-0.00783746 -0.0861519 0
-0.0107277 -0.156293 0
-0.14802 -1.95291 0
-0.103016 -0.179476 0
-0.0880241 -0.985853 0
-0.405688 -0.726453 0
0.0861088 -1.61327 0
-0.395774 -1.50003 0
-0.238191 -1.84586 0
-0.95475 -1.47177 0
-0.164777 -1.917 0
-0.0898427 -2.24739 0
-0.133861 -0.373115 0
-0.318407 -0.648225 0
-0.141893 -0.740947 0
0.386645 -0.4866 0
0.145661 -1.13215 0
-0.0906447 -2.04349 0
0.666536 -1.05825 0
-0.0332572 -0.21369 0
0.101829 -0.925343 0
-0.508811 -0.776021 0
0.750959 -1.17038 0
0.158463 -1.45808 0
-0.0588678 -1.03763 0
-1.05644 -1.70538 0
-0.282711 -2.13924 0
-0.421126 -1.48693 0
-0.266608 -0.778287 0
-0.53542 -1.41394 0
-0.207523 -0.9411 0
-0.0617207 -1.21874 0
-0.251296 -1.45086 0
0.343182 -1.05159 0
-1.1468 -1.01685 0
0.177572 -1.23428 0
-0.0609852 -0.466343 0
-0.000455297 -0.404402 0
0.0112723 -0.300224 0
0.0475861 -0.315687 0
-1.83414 -0.672506 0
-0.253636 -1.67573 0
-0.115299 -0.465221 0
0.239529 -0.519223 0
-0.252722 -0.490266 0
0.21411 -0.485244 0
-0.0709478 -1.15564 0
0.0434845 -0.487138 0
-0.382429 -1.29434 0
0.485703 -0.660302 0
0.352981 -1.22964 0
0.32918 -1.06537 0
0.179751 -0.584153 0
0.232997 -0.500342 0
0.213327 -0.55714 0
0.172162 -1.5573 0
0.112481 -1.46236 0
-0.226975 -0.848394 0
0.0964825 -1.03321 0
-0.14718 -1.19369 0
