# vtk DataFile Version 2.0
Unstructured Grid by M++
ASCII
DATASET UNSTRUCTURED_GRID
POINTS 81 float
  1.000000   0.625000 0
  0.750000   0.375000 0
  1.000000   0.000000 0
  0.875000   0.875000 0
  0.750000   0.125000 0
  1.000000   1.000000 0
  0.875000   0.250000 0
  0.625000   0.875000 0
  1.000000   0.750000 0
  0.875000   0.000000 0
  1.000000   0.250000 0
  0.625000   0.375000 0
  0.875000   0.500000 0
  0.625000   0.625000 0
  1.000000   0.500000 0
  0.750000   0.500000 0
  0.750000   1.000000 0
  1.000000   0.125000 0
  0.625000   0.250000 0
  0.750000   0.750000 0
  0.625000   0.000000 0
  0.125000   0.375000 0
  0.000000   0.500000 0
  0.125000   0.625000 0
  0.625000   1.000000 0
  1.000000   0.875000 0
  0.875000   0.125000 0
  0.500000   0.250000 0
  0.625000   0.500000 0
  0.250000   0.625000 0
  0.000000   0.625000 0
  0.375000   0.500000 0
  0.375000   0.000000 0
  0.000000   0.125000 0
  0.125000   0.875000 0
  0.875000   1.000000 0
  0.750000   0.250000 0
  0.375000   0.375000 0
  0.250000   0.375000 0
  0.625000   0.750000 0
  0.125000   0.125000 0
  0.500000   0.000000 0
  0.250000   0.875000 0
  0.125000   0.500000 0
  0.500000   0.375000 0
  0.125000   0.000000 0
  0.250000   0.750000 0
  0.250000   0.500000 0
  0.000000   0.875000 0
  0.875000   0.625000 0
  0.500000   0.750000 0
  0.750000   0.625000 0
  0.250000   0.000000 0
  0.375000   0.750000 0
  0.750000   0.875000 0
  0.625000   0.125000 0
  0.250000   0.250000 0
  0.375000   1.000000 0
  0.375000   0.250000 0
  0.000000   0.375000 0
  0.500000   1.000000 0
  0.875000   0.750000 0
  0.750000   0.000000 0
  0.375000   0.125000 0
  0.500000   0.875000 0
  0.000000   0.000000 0
  0.125000   0.750000 0
  0.500000   0.625000 0
  0.125000   0.250000 0
  0.500000   0.125000 0
  0.250000   1.000000 0
  0.250000   0.125000 0
  0.000000   1.000000 0
  0.375000   0.875000 0
  0.000000   0.750000 0
  0.375000   0.625000 0
  0.000000   0.250000 0
  0.125000   1.000000 0
  1.000000   0.375000 0
  0.500000   0.500000 0
  0.875000   0.375000 0
CELLS 64 320
4 56 71 58 63
4 27 58 69 63
4 41 69 32 63
4 76 33 68 40
4 27 44 58 37
4 79 31 44 37
4 56 38 68 21
4 56 58 38 37
4 52 32 71 63
4 47 38 31 37
4 76 68 59 21
4 22 59 43 21
4 65 45 33 40
4 47 43 38 21
4 52 71 45 40
4 56 68 71 40
4 74 30 66 23
4 46 66 29 23
4 22 43 30 23
4 72 48 77 34
4 46 53 42 73
4 50 64 53 73
4 70 42 57 73
4 74 66 48 34
4 46 42 66 34
4 47 29 43 23
4 70 77 42 34
4 60 57 64 73
4 79 67 31 75
4 47 31 29 75
4 50 53 67 75
4 46 29 53 75
4 10 78 6 80
4 36 6 1 80
4 15 1 12 80
4 36 4 6 26
4 14 12 78 80
4 2 17 9 26
4 36 18 4 55
4 15 28 1 11
4 62 4 20 55
4 10 6 17 26
4 27 18 44 11
4 62 9 4 26
4 27 69 18 55
4 36 1 18 11
4 41 20 69 55
4 79 44 28 11
4 16 24 54 7
4 19 54 39 7
4 50 39 64 7
4 8 25 61 3
4 60 64 24 7
4 79 28 67 13
4 19 51 61 49
4 8 61 0 49
4 15 51 28 13
4 19 39 51 13
4 50 67 39 13
4 19 61 54 3
4 14 0 12 49
4 5 35 25 3
4 15 12 51 49
4 16 54 35 3
CELL_TYPES 64
8
8
8
8
8
8
8
8
8
8
8
8
8
8
8
8
8
8
8
8
8
8
8
8
8
8
8
8
8
8
8
8
8
8
8
8
8
8
8
8
8
8
8
8
8
8
8
8
8
8
8
8
8
8
8
8
8
8
8
8
8
8
8
8
CELL_DATA 64
VECTORS vector_value float
0.991395 -0.461756 0
1.453 -1.43958 0
0.110356 -0.462612 0
0.0187678 -0.423351 0
0.224456 -1.18302 0
0.157168 -0.279614 0
0.353379 -0.986051 0
0.207575 -0.328915 0
0.0334348 -0.0630954 0
0.505093 -0.74206 0
0.000221431 -0.586099 0
-0.108625 -0.368729 0
-0.090065 -0.577618 0
-0.0184345 -1.47421 0
-0.00603696 -0.033182 0
0.187119 -0.367794 0
0.552336 -1.45859 0
0.133122 -1.23953 0
0.0407475 -0.197751 0
-0.033415 -0.890555 0
-0.000434665 -0.206238 0
0.0429214 -0.0373363 0
-0.564099 -0.713207 0
-0.183788 -1.31997 0
-0.114012 -1.65223 0
0.899306 -2.28553 0
-0.529658 -1.67379 0
0.273576 -0.122001 0
0.307724 -0.130748 0
0.490038 -0.445374 0
0.0439893 -0.0184331 0
0.200222 -0.453365 0
0.156387 -1.98358 0
-0.00928417 -0.388013 0
0.16963 -0.713721 0
-0.00538216 -0.0461102 0
0.140491 -1.6625 0
-0.073825 -1.95431 0
-0.20403 -0.222804 0
-0.435118 -1.87102 0
-0.0154169 -0.0997504 0
-0.00351697 -2.09339 0
-0.398107 -1.61679 0
-0.0736612 -0.197376 0
0.0653583 -2.94521 0
-0.573451 -0.927531 0
0.547798 -4.61206 0
-0.341903 -0.888145 0
0.582062 -1.3764 0
0.159283 -1.38321 0
0.133029 -0.925297 0
0.269114 -2.32506 0
0.752972 -1.0858 0
0.0998451 -0.323869 0
-0.064841 -0.243294 0
-0.44732 -2.30593 0
0.0216213 -2.11244 0
0.164041 -1.59268 0
0.289771 -0.688176 0
0.10028 -0.150647 0
-0.0236866 -1.40409 0
0.447208 -1.607 0
-0.399473 -1.1002 0
0.823452 -0.53125 0
