# vtk DataFile Version 2.0
Unstructured Grid by M++
ASCII
DATASET UNSTRUCTURED_GRID
POINTS 81 float
  1.000000   0.625000 0
  0.750000   0.375000 0
  1.000000   0.000000 0
  0.875000   0.875000 0
  0.750000   0.125000 0
  1.000000   1.000000 0
  0.875000   0.250000 0
  0.625000   0.875000 0
  1.000000   0.750000 0
  0.875000   0.000000 0
  1.000000   0.250000 0
  0.625000   0.375000 0
  0.875000   0.500000 0
  0.625000   0.625000 0
  1.000000   0.500000 0
  0.750000   0.500000 0
  0.750000   1.000000 0
  1.000000   0.125000 0
  0.625000   0.250000 0
  0.750000   0.750000 0
  0.625000   0.000000 0
  0.125000   0.375000 0
  0.000000   0.500000 0
  0.125000   0.625000 0
  0.625000   1.000000 0
  1.000000   0.875000 0
  0.875000   0.125000 0
  0.500000   0.250000 0
  0.625000   0.500000 0
  0.250000   0.625000 0
  0.000000   0.625000 0
  0.375000   0.500000 0
  0.375000   0.000000 0
  0.000000   0.125000 0
  0.125000   0.875000 0
  0.875000   1.000000 0
  0.750000   0.250000 0
  0.375000   0.375000 0
  0.250000   0.375000 0
  0.625000   0.750000 0
  0.125000   0.125000 0
  0.500000   0.000000 0
  0.250000   0.875000 0
  0.125000   0.500000 0
  0.500000   0.375000 0
  0.125000   0.000000 0
  0.250000   0.750000 0
  0.250000   0.500000 0
  0.000000   0.875000 0
  0.875000   0.625000 0
  0.500000   0.750000 0
  0.750000   0.625000 0
  0.250000   0.000000 0
  0.375000   0.750000 0
  0.750000   0.875000 0
  0.625000   0.125000 0
  0.250000   0.250000 0
  0.375000   1.000000 0
  0.375000   0.250000 0
  0.000000   0.375000 0
  0.500000   1.000000 0
  0.875000   0.750000 0
  0.750000   0.000000 0
  0.375000   0.125000 0
  0.500000   0.875000 0
  0.000000   0.000000 0
  0.125000   0.750000 0
  0.500000   0.625000 0
  0.125000   0.250000 0
  0.500000   0.125000 0
  0.250000   1.000000 0
  0.250000   0.125000 0
  0.000000   1.000000 0
  0.375000   0.875000 0
  0.000000   0.750000 0
  0.375000   0.625000 0
  0.000000   0.250000 0
  0.125000   1.000000 0
  1.000000   0.375000 0
  0.500000   0.500000 0
  0.875000   0.375000 0
CELLS 64 320
4 56 71 58 63
4 27 58 69 63
4 41 69 32 63
4 76 33 68 40
4 27 44 58 37
4 79 31 44 37
4 56 38 68 21
4 56 58 38 37
4 52 32 71 63
4 47 38 31 37
4 76 68 59 21
4 22 59 43 21
4 65 45 33 40
4 47 43 38 21
4 52 71 45 40
4 56 68 71 40
4 74 30 66 23
4 46 66 29 23
4 22 43 30 23
4 72 48 77 34
4 46 53 42 73
4 50 64 53 73
4 70 42 57 73
4 74 66 48 34
4 46 42 66 34
4 47 29 43 23
4 70 77 42 34
4 60 57 64 73
4 79 67 31 75
4 47 31 29 75
4 50 53 67 75
4 46 29 53 75
4 10 78 6 80
4 36 6 1 80
4 15 1 12 80
4 36 4 6 26
4 14 12 78 80
4 2 17 9 26
4 36 18 4 55
4 15 28 1 11
4 62 4 20 55
4 10 6 17 26
4 27 18 44 11
4 62 9 4 26
4 27 69 18 55
4 36 1 18 11
4 41 20 69 55
4 79 44 28 11
4 16 24 54 7
4 19 54 39 7
4 50 39 64 7
4 8 25 61 3
4 60 64 24 7
4 79 28 67 13
4 19 51 61 49
4 8 61 0 49
4 15 51 28 13
4 19 39 51 13
4 50 67 39 13
4 19 61 54 3
4 14 0 12 49
4 5 35 25 3
4 15 12 51 49
4 16 54 35 3
CELL_TYPES 64
8
8
8
8
8
8
8
8
8
8
8
8
8
8
8
8
8
8
8
8
8
8
8
8
8
8
8
8
8
8
8
8
8
8
8
8
8
8
8
8
8
8
8
8
8
8
8
8
8
8
8
8
8
8
8
8
8
8
8
8
8
8
8
8
CELL_DATA 64
VECTORS vector_value float
-1.17038 -0.529458 0
-1.53798 -1.06434 0
-0.00275519 -0.428981 0
-1.36273 -5.12967 0
-0.742325 -0.466005 0
-1.25148 -1.99893 0
-2.32968 -1.11667 0
-2.43556 -0.938324 0
-0.0562937 -0.177804 0
-0.382999 -0.379898 0
-0.427293 -2.65898 0
0.0343283 -1.93815 0
-0.154838 -5.91106 0
-0.0258122 -0.591442 0
-0.505861 -0.552949 0
-1.0767 -0.332195 0
-0.187033 -2.21083 0
0.0694602 -0.443781 0
0.0820014 -2.28385 0
-0.0427444 -0.939892 0
0.135853 -0.153119 0
0.160952 -0.173383 0
-0.313118 -0.804111 0
-0.423024 -1.51968 0
-0.537262 -1.19028 0
0.0153096 -0.115937 0
-0.381305 -1.45922 0
0.435426 -0.122763 0
-0.470064 -0.837122 0
0.129938 -0.23916 0
0.0514621 -0.344701 0
0.0302688 -0.0163361 0
-0.00267447 -0.0213514 0
-0.00601024 -0.0144279 0
-0.104524 -0.0414753 0
0.00398558 -0.0216259 0
-0.067135 -0.0738328 0
-0.000775697 -0.0138619 0
0.180438 -0.263 0
-0.582773 -0.801781 0
0.0357193 -0.131923 0
-0.00121758 -0.0157673 0
-1.16464 -2.64998 0
0.126324 -0.24441 0
-0.0458513 -0.643936 0
-0.0450226 -0.134265 0
0.00872093 -0.539011 0
-0.602181 -2.17449 0
0.644689 -1.66462 0
-0.312668 -2.38178 0
-0.117831 -0.630148 0
0.0562403 -1.51689 0
1.08853 -0.876249 0
-1.62265 -2.17802 0
-0.675695 -1.02316 0
-0.434523 -0.992379 0
-1.77371 -1.54326 0
-0.316483 -1.47115 0
-0.382943 -1.49766 0
-0.0584474 -0.434719 0
-0.0850464 -0.247762 0
0.0419332 -0.951196 0
-0.837035 -0.554885 0
0.208522 -1.18194 0
