# vtk DataFile Version 2.0
Unstructured Grid by M++
ASCII
DATASET UNSTRUCTURED_GRID
POINTS 81 float
  1.000000   0.625000 0
  0.750000   0.375000 0
  1.000000   0.000000 0
  0.875000   0.875000 0
  0.750000   0.125000 0
  1.000000   1.000000 0
  0.875000   0.250000 0
  0.625000   0.875000 0
  1.000000   0.750000 0
  0.875000   0.000000 0
  1.000000   0.250000 0
  0.625000   0.375000 0
  0.875000   0.500000 0
  0.625000   0.625000 0
  1.000000   0.500000 0
  0.750000   0.500000 0
  0.750000   1.000000 0
  1.000000   0.125000 0
  0.625000   0.250000 0
  0.750000   0.750000 0
  0.625000   0.000000 0
  0.125000   0.375000 0
  0.000000   0.500000 0
  0.125000   0.625000 0
  0.625000   1.000000 0
  1.000000   0.875000 0
  0.875000   0.125000 0
  0.500000   0.250000 0
  0.625000   0.500000 0
  0.250000   0.625000 0
  0.000000   0.625000 0
  0.375000   0.500000 0
  0.375000   0.000000 0
  0.000000   0.125000 0
  0.125000   0.875000 0
  0.875000   1.000000 0
  0.750000   0.250000 0
  0.375000   0.375000 0
  0.250000   0.375000 0
  0.625000   0.750000 0
  0.125000   0.125000 0
  0.500000   0.000000 0
  0.250000   0.875000 0
  0.125000   0.500000 0
  0.500000   0.375000 0
  0.125000   0.000000 0
  0.250000   0.750000 0
  0.250000   0.500000 0
  0.000000   0.875000 0
  0.875000   0.625000 0
  0.500000   0.750000 0
  0.750000   0.625000 0
  0.250000   0.000000 0
  0.375000   0.750000 0
  0.750000   0.875000 0
  0.625000   0.125000 0
  0.250000   0.250000 0
  0.375000   1.000000 0
  0.375000   0.250000 0
  0.000000   0.375000 0
  0.500000   1.000000 0
  0.875000   0.750000 0
  0.750000   0.000000 0
  0.375000   0.125000 0
  0.500000   0.875000 0
  0.000000   0.000000 0
  0.125000   0.750000 0
  0.500000   0.625000 0
  0.125000   0.250000 0
  0.500000   0.125000 0
  0.250000   1.000000 0
  0.250000   0.125000 0
  0.000000   1.000000 0
  0.375000   0.875000 0
  0.000000   0.750000 0
  0.375000   0.625000 0
  0.000000   0.250000 0
  0.125000   1.000000 0
  1.000000   0.375000 0
  0.500000   0.500000 0
  0.875000   0.375000 0
CELLS 64 320
4 56 71 58 63
4 27 58 69 63
4 41 69 32 63
4 76 33 68 40
4 27 44 58 37
4 79 31 44 37
4 56 38 68 21
4 56 58 38 37
4 52 32 71 63
4 47 38 31 37
4 76 68 59 21
4 22 59 43 21
4 65 45 33 40
4 47 43 38 21
4 52 71 45 40
4 56 68 71 40
4 74 30 66 23
4 46 66 29 23
4 22 43 30 23
4 72 48 77 34
4 46 53 42 73
4 50 64 53 73
4 70 42 57 73
4 74 66 48 34
4 46 42 66 34
4 47 29 43 23
4 70 77 42 34
4 60 57 64 73
4 79 67 31 75
4 47 31 29 75
4 50 53 67 75
4 46 29 53 75
4 10 78 6 80
4 36 6 1 80
4 15 1 12 80
4 36 4 6 26
4 14 12 78 80
4 2 17 9 26
4 36 18 4 55
4 15 28 1 11
4 62 4 20 55
4 10 6 17 26
4 27 18 44 11
4 62 9 4 26
4 27 69 18 55
4 36 1 18 11
4 41 20 69 55
4 79 44 28 11
4 16 24 54 7
4 19 54 39 7
4 50 39 64 7
4 8 25 61 3
4 60 64 24 7
4 79 28 67 13
4 19 51 61 49
4 8 61 0 49
4 15 51 28 13
4 19 39 51 13
4 50 67 39 13
4 19 61 54 3
4 14 0 12 49
4 5 35 25 3
4 15 12 51 49
4 16 54 35 3
CELL_TYPES 64
8
8
8
8
8
8
8
8
8
8
8
8
8
8
8
8
8
8
8
8
8
8
8
8
8
8
8
8
8
8
8
8
8
8
8
8
8
8
8
8
8
8
8
8
8
8
8
8
8
8
8
8
8
8
8
8
8
8
8
8
8
8
8
8
CELL_DATA 64
VECTORS vector_value float
0.0425214 -0.755922 0
-0.0547514 -0.0965344 0
-0.0358648 -0.215626 0
-0.0632179 -1.77681 0
-0.130868 -0.124073 0
-0.124333 -0.12517 0
-0.207799 -2.73134 0
-0.148555 -0.721878 0
0.392359 -1.59023 0
-0.203927 -0.986958 0
-0.0355345 -1.42102 0
-0.0298339 -1.36788 0
0.0297874 -1.54066 0
-0.12515 -2.38913 0
0.177403 -1.86224 0
0.250419 -2.47786 0
-0.0859061 -0.309569 0
-0.593329 -2.76454 0
-0.465305 -1.00496 0
0.395519 -0.725936 0
-0.452124 -1.74972 0
-0.367299 -0.306046 0
-0.519439 -1.00401 0
-0.0108756 -0.195354 0
-0.0972576 -2.0356 0
-0.527948 -2.81996 0
0.181445 -1.70156 0
-0.415607 -0.61259 0
-0.193386 -0.219752 0
-0.185949 -0.711098 0
-0.284814 -0.275862 0
-0.557511 -1.1929 0
0.0768965 -0.70619 0
-0.126775 -1.56095 0
0.835502 -1.7145 0
0.0636339 -1.38093 0
0.164562 -0.277154 0
0.350458 -1.22956 0
0.159777 -0.7531 0
0.196992 -0.89302 0
0.0930982 -0.197582 0
0.00423576 -0.630022 0
-0.0587453 -0.292527 0
0.591846 -1.31646 0
-0.0493274 -0.12883 0
-0.092418 -0.442032 0
-0.0258634 -0.0476468 0
-0.186553 -0.246186 0
0.35965 -0.648989 0
-0.207127 -0.819957 0
-0.126133 -0.494539 0
-0.38044 -1.12883 0
0.0223497 -0.823522 0
-0.115604 -0.183028 0
-0.418126 -0.667956 0
-0.205843 -0.473317 0
0.320224 -2.12437 0
-0.669876 -2.02626 0
-0.197015 -0.289601 0
-0.931896 -1.26995 0
-0.00428126 -0.143867 0
0.167599 -1.359 0
0.0142872 -0.79296 0
0.457954 -1.12439 0
