# vtk DataFile Version 2.0
Unstructured Grid by M++
ASCII
DATASET UNSTRUCTURED_GRID
POINTS 81 float
  1.000000   0.625000 0
  0.750000   0.375000 0
  1.000000   0.000000 0
  0.875000   0.875000 0
  0.750000   0.125000 0
  1.000000   1.000000 0
  0.875000   0.250000 0
  0.625000   0.875000 0
  1.000000   0.750000 0
  0.875000   0.000000 0
  1.000000   0.250000 0
  0.625000   0.375000 0
  0.875000   0.500000 0
  0.625000   0.625000 0
  1.000000   0.500000 0
  0.750000   0.500000 0
  0.750000   1.000000 0
  1.000000   0.125000 0
  0.625000   0.250000 0
  0.750000   0.750000 0
  0.625000   0.000000 0
  0.125000   0.375000 0
  0.000000   0.500000 0
  0.125000   0.625000 0
  0.625000   1.000000 0
  1.000000   0.875000 0
  0.875000   0.125000 0
  0.500000   0.250000 0
  0.625000   0.500000 0
  0.250000   0.625000 0
  0.000000   0.625000 0
  0.375000   0.500000 0
  0.375000   0.000000 0
  0.000000   0.125000 0
  0.125000   0.875000 0
  0.875000   1.000000 0
  0.750000   0.250000 0
  0.375000   0.375000 0
  0.250000   0.375000 0
  0.625000   0.750000 0
  0.125000   0.125000 0
  0.500000   0.000000 0
  0.250000   0.875000 0
  0.125000   0.500000 0
  0.500000   0.375000 0
  0.125000   0.000000 0
  0.250000   0.750000 0
  0.250000   0.500000 0
  0.000000   0.875000 0
  0.875000   0.625000 0
  0.500000   0.750000 0
  0.750000   0.625000 0
  0.250000   0.000000 0
  0.375000   0.750000 0
  0.750000   0.875000 0
  0.625000   0.125000 0
  0.250000   0.250000 0
  0.375000   1.000000 0
  0.375000   0.250000 0
  0.000000   0.375000 0
  0.500000   1.000000 0
  0.875000   0.750000 0
  0.750000   0.000000 0
  0.375000   0.125000 0
  0.500000   0.875000 0
  0.000000   0.000000 0
  0.125000   0.750000 0
  0.500000   0.625000 0
  0.125000   0.250000 0
  0.500000   0.125000 0
  0.250000   1.000000 0
  0.250000   0.125000 0
  0.000000   1.000000 0
  0.375000   0.875000 0
  0.000000   0.750000 0
  0.375000   0.625000 0
  0.000000   0.250000 0
  0.125000   1.000000 0
  1.000000   0.375000 0
  0.500000   0.500000 0
  0.875000   0.375000 0
CELLS 64 320
4 56 71 58 63
4 27 58 69 63
4 41 69 32 63
4 76 33 68 40
4 27 44 58 37
4 79 31 44 37
4 56 38 68 21
4 56 58 38 37
4 52 32 71 63
4 47 38 31 37
4 76 68 59 21
4 22 59 43 21
4 65 45 33 40
4 47 43 38 21
4 52 71 45 40
4 56 68 71 40
4 74 30 66 23
4 46 66 29 23
4 22 43 30 23
4 72 48 77 34
4 46 53 42 73
4 50 64 53 73
4 70 42 57 73
4 74 66 48 34
4 46 42 66 34
4 47 29 43 23
4 70 77 42 34
4 60 57 64 73
4 79 67 31 75
4 47 31 29 75
4 50 53 67 75
4 46 29 53 75
4 10 78 6 80
4 36 6 1 80
4 15 1 12 80
4 36 4 6 26
4 14 12 78 80
4 2 17 9 26
4 36 18 4 55
4 15 28 1 11
4 62 4 20 55
4 10 6 17 26
4 27 18 44 11
4 62 9 4 26
4 27 69 18 55
4 36 1 18 11
4 41 20 69 55
4 79 44 28 11
4 16 24 54 7
4 19 54 39 7
4 50 39 64 7
4 8 25 61 3
4 60 64 24 7
4 79 28 67 13
4 19 51 61 49
4 8 61 0 49
4 15 51 28 13
4 19 39 51 13
4 50 67 39 13
4 19 61 54 3
4 14 0 12 49
4 5 35 25 3
4 15 12 51 49
4 16 54 35 3
CELL_TYPES 64
8
8
8
8
8
8
8
8
8
8
8
8
8
8
8
8
8
8
8
8
8
8
8
8
8
8
8
8
8
8
8
8
8
8
8
8
8
8
8
8
8
8
8
8
8
8
8
8
8
8
8
8
8
8
8
8
8
8
8
8
8
8
8
8
CELL_DATA 64
VECTORS vector_value float
0.320739 -0.481853 0
0.0813511 -0.22599 0
0.23402 -0.690223 0
-0.128125 -0.421202 0
0.372213 -0.25636 0
0.0461411 -0.32237 0
-0.053429 -1.14309 0
0.211954 -0.584365 0
0.0837922 -0.212267 0
-0.206631 -0.810612 0
-0.0671901 -0.182992 0
0.114668 -0.220833 0
-0.0206006 -0.604453 0
-0.036814 -1.00947 0
0.000570706 -0.354537 0
0.00431547 -0.733028 0
0.259956 -0.953875 0
0.338318 -0.208227 0
0.0846733 -0.510281 0
-0.23366 -1.39998 0
0.525512 -1.00794 0
0.32836 -0.40025 0
-0.0861768 -0.528036 0
0.184619 -1.38564 0
0.606296 -0.452847 0
0.182444 -0.429831 0
-0.323328 -0.932773 0
0.254329 -1.00085 0
0.129095 -0.78903 0
0.020003 -0.901404 0
0.577125 -0.660791 0
0.57965 -1.03354 0
-0.059223 -4.72651 0
0.00122229 -0.746295 0
0.0402045 -0.499317 0
-0.147639 -0.936953 0
0.0162351 -4.84305 0
-0.0482918 -4.26614 0
0.0238684 -0.0538424 0
0.116464 -0.0764513 0
-0.0106973 -0.146695 0
-0.172003 -4.60879 0
0.202737 -0.299659 0
-0.0884513 -1.2263 0
0.0903596 -0.538343 0
0.10663 -0.0607308 0
0.0045492 -0.499382 0
0.178917 -0.217898 0
1.40714 -0.724092 0
1.12103 -0.154769 0
0.872221 -0.208943 0
0.916751 -3.33383 0
0.649277 -0.398516 0
0.180163 -0.0626372 0
0.457822 -1.01555 0
0.254969 -4.12104 0
0.052584 -0.0157594 0
0.246989 0.006521 0
0.211363 -0.0135064 0
1.40146 -1.05578 0
0.1513 -4.62622 0
0.565286 -1.7237 0
0.167449 -0.664837 0
1.53248 -1.29205 0
