# vtk DataFile Version 2.0
Unstructured Grid by M++
ASCII
DATASET UNSTRUCTURED_GRID
POINTS 81 float
  1.000000   0.625000 0
  0.750000   0.375000 0
  1.000000   0.000000 0
  0.875000   0.875000 0
  0.750000   0.125000 0
  1.000000   1.000000 0
  0.875000   0.250000 0
  0.625000   0.875000 0
  1.000000   0.750000 0
  0.875000   0.000000 0
  1.000000   0.250000 0
  0.625000   0.375000 0
  0.875000   0.500000 0
  0.625000   0.625000 0
  1.000000   0.500000 0
  0.750000   0.500000 0
  0.750000   1.000000 0
  1.000000   0.125000 0
  0.625000   0.250000 0
  0.750000   0.750000 0
  0.625000   0.000000 0
  0.125000   0.375000 0
  0.000000   0.500000 0
  0.125000   0.625000 0
  0.625000   1.000000 0
  1.000000   0.875000 0
  0.875000   0.125000 0
  0.500000   0.250000 0
  0.625000   0.500000 0
  0.250000   0.625000 0
  0.000000   0.625000 0
  0.375000   0.500000 0
  0.375000   0.000000 0
  0.000000   0.125000 0
  0.125000   0.875000 0
  0.875000   1.000000 0
  0.750000   0.250000 0
  0.375000   0.375000 0
  0.250000   0.375000 0
  0.625000   0.750000 0
  0.125000   0.125000 0
  0.500000   0.000000 0
  0.250000   0.875000 0
  0.125000   0.500000 0
  0.500000   0.375000 0
  0.125000   0.000000 0
  0.250000   0.750000 0
  0.250000   0.500000 0
  0.000000   0.875000 0
  0.875000   0.625000 0
  0.500000   0.750000 0
  0.750000   0.625000 0
  0.250000   0.000000 0
  0.375000   0.750000 0
  0.750000   0.875000 0
  0.625000   0.125000 0
  0.250000   0.250000 0
  0.375000   1.000000 0
  0.375000   0.250000 0
  0.000000   0.375000 0
  0.500000   1.000000 0
  0.875000   0.750000 0
  0.750000   0.000000 0
  0.375000   0.125000 0
  0.500000   0.875000 0
  0.000000   0.000000 0
  0.125000   0.750000 0
  0.500000   0.625000 0
  0.125000   0.250000 0
  0.500000   0.125000 0
  0.250000   1.000000 0
  0.250000   0.125000 0
  0.000000   1.000000 0
  0.375000   0.875000 0
  0.000000   0.750000 0
  0.375000   0.625000 0
  0.000000   0.250000 0
  0.125000   1.000000 0
  1.000000   0.375000 0
  0.500000   0.500000 0
  0.875000   0.375000 0
CELLS 64 320
4 56 71 58 63
4 27 58 69 63
4 41 69 32 63
4 76 33 68 40
4 27 44 58 37
4 79 31 44 37
4 56 38 68 21
4 56 58 38 37
4 52 32 71 63
4 47 38 31 37
4 76 68 59 21
4 22 59 43 21
4 65 45 33 40
4 47 43 38 21
4 52 71 45 40
4 56 68 71 40
4 74 30 66 23
4 46 66 29 23
4 22 43 30 23
4 72 48 77 34
4 46 53 42 73
4 50 64 53 73
4 70 42 57 73
4 74 66 48 34
4 46 42 66 34
4 47 29 43 23
4 70 77 42 34
4 60 57 64 73
4 79 67 31 75
4 47 31 29 75
4 50 53 67 75
4 46 29 53 75
4 10 78 6 80
4 36 6 1 80
4 15 1 12 80
4 36 4 6 26
4 14 12 78 80
4 2 17 9 26
4 36 18 4 55
4 15 28 1 11
4 62 4 20 55
4 10 6 17 26
4 27 18 44 11
4 62 9 4 26
4 27 69 18 55
4 36 1 18 11
4 41 20 69 55
4 79 44 28 11
4 16 24 54 7
4 19 54 39 7
4 50 39 64 7
4 8 25 61 3
4 60 64 24 7
4 79 28 67 13
4 19 51 61 49
4 8 61 0 49
4 15 51 28 13
4 19 39 51 13
4 50 67 39 13
4 19 61 54 3
4 14 0 12 49
4 5 35 25 3
4 15 12 51 49
4 16 54 35 3
CELL_TYPES 64
8
8
8
8
8
8
8
8
8
8
8
8
8
8
8
8
8
8
8
8
8
8
8
8
8
8
8
8
8
8
8
8
8
8
8
8
8
8
8
8
8
8
8
8
8
8
8
8
8
8
8
8
8
8
8
8
8
8
8
8
8
8
8
8
CELL_DATA 64
VECTORS vector_value float
-0.537246 -0.709975 0
-0.927451 -1.09908 0
-0.566323 -1.2377 0
0.17204 -0.303609 0
0.266037 -1.21939 0
0.617198 -2.03517 0
-0.00712565 -0.0995396 0
0.0339418 -0.203897 0
-0.460216 -1.15406 0
0.179757 -0.402925 0
-0.029086 -0.524664 0
-0.0465296 -0.395409 0
0.0464552 -0.100075 0
-0.0442491 -0.275272 0
-0.083986 -0.966938 0
0.0617775 -0.424067 0
-0.0390361 -0.208144 0
0.299352 -1.08571 0
-0.0444053 -0.333324 0
0.267391 -0.558761 0
0.629015 -1.12832 0
0.413591 -1.89855 0
-0.272445 -1.54058 0
0.130876 -0.414858 0
0.466913 -1.66281 0
0.0211726 -0.377236 0
0.188605 -1.52221 0
-0.776264 -1.10837 0
0.762074 -1.94409 0
0.540113 -1.08663 0
0.776833 -2.29363 0
0.666337 -1.17113 0
-0.0562752 -0.200431 0
-0.387366 -1.56707 0
-0.218213 -1.30078 0
0.217789 -1.41085 0
-0.172626 -0.855502 0
0.441857 -0.846643 0
-0.35374 -1.90613 0
0.0572185 -1.49575 0
-0.0540826 -0.795151 0
-0.0194879 -0.101726 0
0.375374 -2.42845 0
0.253717 -0.948236 0
-0.819482 -2.04457 0
-0.258463 -1.75657 0
-0.445052 -1.9512 0
0.288746 -1.23919 0
-0.685157 -0.799912 0
-0.250776 -0.550073 0
-0.285359 -1.04166 0
-0.0963872 -0.791587 0
-0.732489 -0.615295 0
0.906165 -1.26113 0
-0.0842416 -1.00862 0
-0.120438 -0.391852 0
0.595756 -0.870348 0
0.632685 -0.904441 0
0.703554 -0.936472 0
-0.0543817 -0.512146 0
0.123998 -0.436456 0
-0.103676 -0.762853 0
0.555501 -1.69079 0
-0.419756 -1.09202 0
