# vtk DataFile Version 2.0
Unstructured Grid by M++
ASCII
DATASET UNSTRUCTURED_GRID
POINTS 289 float
  0.562500   1.000000 0
  0.562500   0.625000 0
  0.625000   1.000000 0
  0.562500   0.937500 0
  0.562500   0.562500 0
  0.625000   0.937500 0
  0.562500   0.875000 0
  0.625000   0.750000 0
  0.625000   0.625000 0
  0.562500   0.812500 0
  0.562500   0.750000 0
  0.562500   0.687500 0
  0.625000   0.875000 0
  0.625000   0.812500 0
  0.625000   0.687500 0
  0.687500   0.125000 0
  0.875000   0.062500 0
  0.625000   0.125000 0
  0.625000   0.187500 0
  0.625000   0.250000 0
  0.812500   0.187500 0
  1.000000   0.125000 0
  0.687500   0.187500 0
  0.750000   0.125000 0
  0.937500   0.062500 0
  0.937500   0.125000 0
  0.750000   0.187500 0
  0.812500   0.062500 0
  0.812500   0.125000 0
  0.875000   0.687500 0
  0.187500   0.250000 0
  0.437500   0.250000 0
  0.375000   0.187500 0
  0.812500   0.625000 0
  0.125000   0.187500 0
  0.937500   0.750000 0
  0.250000   0.312500 0
  0.500000   0.312500 0
  0.625000   0.062500 0
  0.437500   0.500000 0
  0.375000   0.125000 0
  0.437500   0.187500 0
  0.437500   0.437500 0
  0.437500   0.375000 0
  0.875000   0.875000 0
  0.187500   0.375000 0
  0.687500   0.562500 0
  0.687500   0.625000 0
  0.000000   0.125000 0
  0.937500   0.625000 0
  0.250000   0.125000 0
  0.375000   0.062500 0
  0.375000   0.000000 0
  0.812500   0.500000 0
  0.125000   0.000000 0
  0.937500   0.937500 0
  0.250000   0.437500 0
  0.687500   0.875000 0
  0.687500   0.937500 0
  0.000000   0.437500 0
  0.500000   0.500000 0
  0.500000   0.437500 0
  0.750000   0.937500 0
  0.750000   1.000000 0
  0.062500   0.500000 0
  1.000000   1.000000 0
  0.312500   0.500000 0
  0.875000   0.562500 0
  0.187500   0.062500 0
  0.437500   0.125000 0
  0.437500   0.062500 0
  0.500000   0.375000 0
  0.937500   0.812500 0
  0.937500   0.875000 0
  0.250000   0.375000 0
  0.687500   0.812500 0
  0.000000   0.375000 0
  0.750000   0.562500 0
  0.062500   0.125000 0
  1.000000   0.562500 0
  1.000000   0.625000 0
  0.312500   0.125000 0
  0.562500   0.125000 0
  0.437500   0.000000 0
  0.875000   0.437500 0
  0.875000   0.500000 0
  0.187500   0.000000 0
  0.937500   0.562500 0
  0.937500   0.500000 0
  0.250000   0.062500 0
  0.687500   0.500000 0
  0.000000   0.062500 0
  0.500000   0.062500 0
  1.000000   0.875000 0
  1.000000   0.937500 0
  0.312500   0.437500 0
  0.750000   0.875000 0
  0.062500   0.437500 0
  0.812500   0.937500 0
  0.125000   0.500000 0
  0.375000   0.500000 0
  0.625000   0.562500 0
  0.625000   0.500000 0
  0.437500   0.312500 0
  0.875000   0.812500 0
  0.875000   0.750000 0
  0.187500   0.312500 0
  0.812500   0.687500 0
  0.812500   0.750000 0
  0.125000   0.250000 0
  0.375000   0.250000 0
  1.000000   0.687500 0
  0.312500   0.187500 0
  0.750000   0.687500 0
  0.750000   0.625000 0
  0.062500   0.187500 0
  0.562500   0.250000 0
  0.562500   0.187500 0
  0.375000   1.000000 0
  0.500000   0.562500 0
  0.500000   0.250000 0
  0.750000   0.250000 0
  0.500000   0.125000 0
  0.500000   0.187500 0
  1.000000   0.187500 0
  0.625000   0.375000 0
  0.875000   0.375000 0
  1.000000   0.437500 0
  0.312500   0.000000 0
  0.562500   0.000000 0
  0.812500   0.000000 0
  0.250000   0.687500 0
  0.000000   0.687500 0
  0.500000   1.000000 0
  0.250000   1.000000 0
  0.000000   1.000000 0
  0.437500   0.687500 0
  0.437500   0.625000 0
  0.187500   0.625000 0
  0.687500   0.750000 0
  0.000000   0.312500 0
  0.000000   0.250000 0
  0.375000   0.375000 0
  0.375000   0.312500 0
  0.812500   0.812500 0
  0.125000   0.312500 0
  0.875000   0.625000 0
  0.187500   0.187500 0
  0.187500   0.125000 0
  0.937500   1.000000 0
  0.250000   0.562500 0
  0.250000   0.500000 0
  0.687500   1.000000 0
  0.000000   0.500000 0
  0.687500   0.687500 0
  0.000000   0.187500 0
  0.937500   0.687500 0
  0.250000   0.250000 0
  0.250000   0.187500 0
  0.187500   0.687500 0
  0.000000   0.750000 0
  0.250000   0.750000 0
  0.125000   0.625000 0
  0.750000   0.750000 0
  0.062500   0.250000 0
  0.875000   0.937500 0
  0.187500   0.500000 0
  0.187500   0.437500 0
  0.812500   0.562500 0
  0.125000   0.125000 0
  0.125000   0.062500 0
  0.375000   0.625000 0
  0.375000   0.687500 0
  1.000000   0.750000 0
  0.312500   0.250000 0
  0.312500   0.312500 0
  0.812500   0.312500 0
  0.562500   0.312500 0
  0.375000   0.750000 0
  0.500000   0.625000 0
  0.250000   0.625000 0
  0.312500   0.687500 0
  0.750000   0.812500 0
  0.062500   0.312500 0
  0.062500   0.375000 0
  1.000000   0.812500 0
  0.312500   0.375000 0
  0.562500   0.375000 0
  0.687500   0.437500 0
  0.000000   0.000000 0
  0.500000   0.000000 0
  0.937500   0.437500 0
  0.250000   0.000000 0
  0.375000   0.437500 0
  0.812500   0.875000 0
  0.125000   0.375000 0
  0.125000   0.437500 0
  0.625000   0.437500 0
  1.000000   0.500000 0
  0.312500   0.062500 0
  0.750000   0.500000 0
  0.062500   0.000000 0
  0.062500   0.062500 0
  0.562500   0.062500 0
  0.062500   0.750000 0
  0.312500   0.750000 0
  0.312500   0.625000 0
  0.312500   0.562500 0
  0.062500   0.562500 0
  0.187500   1.000000 0
  0.437500   0.562500 0
  0.875000   1.000000 0
  0.187500   0.562500 0
  0.500000   0.937500 0
  0.250000   0.937500 0
  0.312500   1.000000 0
  0.125000   0.750000 0
  0.125000   0.687500 0
  1.000000   0.000000 0
  0.000000   0.937500 0
  0.000000   0.875000 0
  0.875000   0.125000 0
  0.875000   0.187500 0
  0.062500   0.812500 0
  0.312500   0.812500 0
  0.000000   0.812500 0
  0.000000   0.625000 0
  0.000000   0.562500 0
  0.062500   1.000000 0
  0.062500   0.937500 0
  0.937500   0.187500 0
  0.937500   0.250000 0
  0.062500   0.687500 0
  0.062500   0.625000 0
  0.125000   1.000000 0
  1.000000   0.250000 0
  1.000000   0.312500 0
  0.062500   0.875000 0
  0.125000   0.812500 0
  0.375000   0.812500 0
  0.125000   0.875000 0
  0.375000   0.937500 0
  0.375000   0.875000 0
  0.187500   0.750000 0
  0.187500   0.812500 0
  0.437500   0.812500 0
  0.187500   0.875000 0
  0.437500   0.875000 0
  0.375000   0.562500 0
  0.812500   1.000000 0
  0.125000   0.562500 0
  0.437500   1.000000 0
  0.437500   0.937500 0
  0.187500   0.937500 0
  0.125000   0.937500 0
  0.500000   0.687500 0
  0.500000   0.750000 0
  0.500000   0.812500 0
  0.250000   0.812500 0
  0.250000   0.875000 0
  0.500000   0.875000 0
  0.437500   0.750000 0
  0.312500   0.875000 0
  0.312500   0.937500 0
  0.687500   0.250000 0
  0.687500   0.312500 0
  0.937500   0.312500 0
  0.875000   0.250000 0
  0.625000   0.000000 0
  0.875000   0.000000 0
  0.687500   0.375000 0
  0.937500   0.375000 0
  0.875000   0.312500 0
  0.625000   0.312500 0
  0.687500   0.000000 0
  0.937500   0.000000 0
  0.750000   0.312500 0
  0.750000   0.375000 0
  1.000000   0.375000 0
  0.812500   0.250000 0
  0.562500   0.437500 0
  0.562500   0.500000 0
  0.687500   0.062500 0
  0.750000   0.437500 0
  0.750000   0.000000 0
  0.750000   0.062500 0
  1.000000   0.062500 0
  0.812500   0.375000 0
  0.812500   0.437500 0
CELLS 256 1280
4 169 170 148 68
4 151 166 56 167
4 195 45 196 167
4 54 170 201 202
4 109 34 30 147
4 40 32 81 112
4 192 89 86 68
4 48 91 78 202
4 99 64 196 97
4 71 43 37 103
4 74 186 56 95
4 109 164 34 115
4 50 81 158 112
4 122 69 92 70
4 195 145 45 106
4 110 143 174 175
4 157 30 158 147
4 40 69 32 41
4 50 158 148 147
4 141 155 164 115
4 122 123 69 41
4 142 186 143 175
4 60 39 61 42
4 40 51 69 70
4 120 31 123 41
4 157 174 36 175
4 50 148 89 68
4 48 78 155 115
4 52 83 51 70
4 151 56 66 95
4 71 61 43 42
4 169 148 34 147
4 100 193 39 42
4 40 81 51 199
4 110 174 32 112
4 109 30 145 106
4 100 66 193 95
4 169 34 78 115
4 190 92 83 70
4 50 89 81 199
4 54 86 170 68
4 74 56 45 167
4 142 143 43 103
4 153 59 64 97
4 99 196 166 167
4 169 78 170 202
4 142 193 186 95
4 192 128 89 199
4 74 45 36 106
4 110 31 143 103
4 76 184 59 97
4 142 43 193 42
4 52 51 128 199
4 189 201 91 202
4 120 37 31 103
4 74 36 186 175
4 195 196 184 97
4 141 164 140 183
4 157 158 174 112
4 109 145 164 183
4 195 184 145 183
4 110 32 31 41
4 157 36 30 106
4 76 140 184 183
4 171 172 206 181
4 178 172 261 136
4 256 261 255 136
4 256 257 261 245
4 180 150 206 207
4 60 119 39 210
4 118 215 241 263
4 178 205 172 181
4 216 243 238 244
4 162 217 233 232
4 180 206 131 181
4 179 137 119 210
4 216 204 217 232
4 220 237 219 229
4 216 217 243 159
4 259 258 262 224
4 240 254 237 229
4 153 64 227 208
4 161 205 258 224
4 240 237 238 223
4 226 227 233 208
4 234 228 254 229
4 171 248 137 210
4 160 132 204 232
4 180 131 138 159
4 133 251 213 252
4 171 206 248 207
4 162 138 217 159
4 161 258 243 244
4 220 225 237 223
4 151 150 166 212
4 260 247 257 245
4 259 262 214 263
4 151 66 150 207
4 234 254 209 253
4 162 233 250 208
4 242 241 262 263
4 171 137 172 136
4 161 243 131 159
4 160 204 225 223
4 161 131 205 181
4 179 255 137 136
4 216 238 204 223
4 100 39 248 210
4 260 213 247 252
4 226 233 132 232
4 134 214 215 263
4 180 138 150 212
4 178 261 239 245
4 259 246 258 244
4 178 239 205 224
4 240 238 246 244
4 242 262 239 224
4 99 250 64 208
4 240 246 254 253
4 242 239 247 245
4 135 219 228 229
4 99 166 250 212
4 259 214 246 253
4 118 241 251 252
4 100 248 66 207
4 134 209 214 253
4 162 250 138 212
4 242 247 241 252
4 71 187 61 280
4 102 281 197 280
4 122 92 82 203
4 17 18 82 117
4 122 82 123 117
4 19 264 273 265
4 267 279 222 20
4 125 273 270 265
4 267 272 279 176
4 19 116 18 117
4 21 25 286 24
4 23 28 26 20
4 23 285 28 27
4 218 286 275 24
4 85 53 84 288
4 235 236 231 266
4 221 222 28 20
4 267 222 231 230
4 268 38 129 203
4 125 270 197 188
4 126 287 272 176
4 277 270 276 265
4 267 231 272 266
4 125 197 187 280
4 190 129 92 203
4 277 276 287 176
4 19 18 264 22
4 17 82 38 203
4 102 197 90 188
4 126 84 287 288
4 284 130 285 27
4 121 276 264 265
4 71 37 187 177
4 120 123 116 117
4 198 88 127 191
4 221 16 25 24
4 23 26 15 22
4 121 279 276 176
4 235 231 124 230
4 125 187 273 177
4 278 271 236 266
4 277 287 283 288
4 284 285 274 282
4 278 127 271 191
4 269 275 16 24
4 200 283 53 288
4 23 15 285 282
4 121 26 279 20
4 21 124 25 230
4 19 273 116 177
4 200 90 283 188
4 126 271 84 191
4 269 16 130 27
4 17 38 15 282
4 221 25 222 230
4 121 264 26 22
4 120 116 37 177
4 60 61 281 280
4 277 283 270 188
4 126 272 271 266
4 268 274 38 282
4 85 84 88 191
4 17 15 18 22
4 221 28 16 27
4 93 94 73 55
4 85 88 67 87
4 80 49 79 87
4 44 104 73 72
4 146 33 67 168
4 211 165 149 55
4 8 47 14 154
4 105 104 108 144
4 105 108 29 107
4 7 139 13 75
4 44 165 194 98
4 200 53 77 168
4 8 1 101 4
4 2 5 152 58
4 260 6 213 3
4 105 35 104 72
4 96 57 182 75
4 7 14 139 154
4 146 29 33 107
4 7 13 10 9
4 12 13 57 75
4 85 67 53 168
4 44 73 165 55
4 63 152 62 58
4 8 101 47 46
4 96 182 194 144
4 60 281 119 4
4 12 5 6 3
4 173 185 35 72
4 65 149 94 55
4 146 67 49 87
4 114 113 47 154
4 163 108 182 144
4 12 6 13 9
4 173 35 111 156
4 163 182 139 75
4 260 257 6 9
4 105 29 35 156
4 163 139 113 154
4 256 10 257 9
4 146 49 29 156
4 163 113 108 107
4 80 111 49 156
4 102 101 281 4
4 12 57 5 58
4 44 194 104 144
4 96 194 62 98
4 2 0 5 3
4 93 73 185 72
4 179 119 1 4
4 200 77 90 46
4 114 33 113 107
4 7 10 14 11
4 96 62 57 58
4 133 213 0 3
4 102 90 101 46
4 256 255 10 11
4 63 62 249 98
4 114 47 77 46
4 179 1 255 11
4 211 249 165 98
4 114 77 33 168
4 198 79 88 87
4 8 14 1 11
CELL_TYPES 256
8
8
8
8
8
8
8
8
8
8
8
8
8
8
8
8
8
8
8
8
8
8
8
8
8
8
8
8
8
8
8
8
8
8
8
8
8
8
8
8
8
8
8
8
8
8
8
8
8
8
8
8
8
8
8
8
8
8
8
8
8
8
8
8
8
8
8
8
8
8
8
8
8
8
8
8
8
8
8
8
8
8
8
8
8
8
8
8
8
8
8
8
8
8
8
8
8
8
8
8
8
8
8
8
8
8
8
8
8
8
8
8
8
8
8
8
8
8
8
8
8
8
8
8
8
8
8
8
8
8
8
8
8
8
8
8
8
8
8
8
8
8
8
8
8
8
8
8
8
8
8
8
8
8
8
8
8
8
8
8
8
8
8
8
8
8
8
8
8
8
8
8
8
8
8
8
8
8
8
8
8
8
8
8
8
8
8
8
8
8
8
8
8
8
8
8
8
8
8
8
8
8
8
8
8
8
8
8
8
8
8
8
8
8
8
8
8
8
8
8
8
8
8
8
8
8
8
8
8
8
8
8
8
8
8
8
8
8
8
8
8
8
8
8
8
8
8
8
8
8
8
8
8
8
8
8
CELL_DATA 256
VECTORS vector_value float
-0.574501 -2.2614 0
-0.0516834 -0.136618 0
-0.0857564 -0.0886838 0
-0.144228 -0.236324 0
-0.158099 0.0154114 0
-0.606435 -1.13556 0
0.220294 -4.1123 0
-0.226331 -1.49119 0
-0.0461112 -0.113603 0
-0.0329008 -0.214101 0
-0.948865 -1.34297 0
-0.0975952 -0.0194351 0
-2.14334 -2.38729 0
0.0443609 -0.0458902 0
-0.0976152 -0.0758211 0
-1.31803 -1.90831 0
-0.643614 -0.408173 0
0.155291 -0.115406 0
-3.61052 -2.60668 0
-0.0457704 -0.626853 0
0.342654 -0.284478 0
-0.439131 -1.9957 0
1.01179 -1.60463 0
0.00246916 -0.0277023 0
-0.0480408 -0.0964131 0
-0.772553 -4.86808 0
-0.105611 -2.72354 0
-0.279901 -0.9642 0
5.978e-05 -0.0074821 0
-0.338409 -0.443897 0
1.39234 -1.225 0
-1.09959 -0.519101 0
-0.0147016 -5.82937 0
-0.0202996 -0.130182 0
-0.274985 -1.71625 0
-0.0406996 -0.00450316 0
-0.788069 -2.73095 0
-0.587303 -0.0574117 0
0.00291481 -0.0193899 0
-0.197715 -0.958601 0
0.0286718 -0.715808 0
-0.0832523 -0.167332 0
-0.690488 -1.78863 0
-0.0314784 -0.0721832 0
-0.0731755 -0.141677 0
-0.466668 -0.0442283 0
-1.98214 -2.72431 0
-0.0494639 -0.690501 0
-0.0121696 -0.064681 0
-0.19979 -0.538355 0
-0.0384044 -0.148419 0
-0.440112 -3.58773 0
-0.00554852 -0.107389 0
-0.0433995 -1.75597 0
-0.0117369 -0.0835248 0
-0.473665 -3.46155 0
-0.092703 -0.159945 0
-0.103102 -0.478132 0
-1.60251 -4.89175 0
-0.170604 -0.0430158 0
-0.177663 -0.144987 0
-0.0830386 -0.330466 0
-0.0435643 -0.0891304 0
-0.103088 -0.288464 0
0.3093 -4.15198 0
0.246195 -0.898218 0
0.130335 -1.21177 0
0.421503 -0.609867 0
0.0733365 -0.493756 0
-1.10104 -2.22837 0
-0.957567 -1.30728 0
0.5061 -3.66571 0
0.036779 -0.295523 0
0.022869 -0.129951 0
0.324272 -0.513836 0
-1.49027 -2.57096 0
-0.020791 -0.0803922 0
0.203784 -0.283027 0
-0.0060501 -0.0775473 0
2.0651 -1.75655 0
0.612405 -0.423195 0
-0.00559248 -0.0159657 0
2.52715 -2.58559 0
0.101782 -0.198131 0
0.0609257 -0.0543249 0
0.563797 -0.561199 0
0.239485 -3.71278 0
-0.0478475 -0.3152 0
0.0156215 -0.105656 0
0.032567 -0.478837 0
0.851659 -2.49552 0
-0.0985629 -0.235523 0
0.392025 -0.900462 0
0.0147074 -0.112668 0
0.131928 -0.155611 0
0.102702 -0.338558 0
-0.391335 -0.44856 0
0.232562 -0.334978 0
0.650463 -1.18844 0
0.245322 -0.282602 0
-0.177951 -0.812325 0
-0.0490172 -0.846058 0
0.0471333 -0.513609 0
-0.0467836 -0.179015 0
0.155894 -0.727864 0
-0.817299 -2.60257 0
-0.115142 -0.133058 0
-0.749509 -5.49359 0
-0.114851 -0.549043 0
0.0945839 -0.278014 0
-1.13434 -0.428206 0
0.163787 -0.203478 0
0.965152 -0.750067 0
3.23303 -2.96524 0
2.48975 -2.08944 0
1.12245 -1.35369 0
0.180531 -0.468885 0
-0.0255321 -0.129485 0
0.256573 -2.48676 0
0.157849 -0.505794 0
0.212481 -0.800036 0
0.0922952 -0.233629 0
-0.497384 -2.55103 0
-0.574198 -0.522219 0
0.167293 -2.57263 0
-0.383548 -2.38809 0
0.2014 -0.174665 0
-0.0876659 -0.29298 0
2.01882 -1.49766 0
0.388253 -0.400558 0
-0.251193 -4.12478 0
-3.72946 -3.79056 0
-0.788299 -0.889533 0
-0.218709 -2.50913 0
-0.122657 -0.175859 0
0.309348 -1.31371 0
-0.197628 -0.335402 0
-0.0290821 -1.34686 0
-0.000186604 -0.00291977 0
-0.183821 -0.655077 0
0.016945 -0.767147 0
0.0024017 -0.00709031 0
-0.355021 -1.96907 0
-0.0687352 -0.138551 0
-0.0607126 -0.0762714 0
-0.0657052 -0.0502411 0
0.390746 -4.27612 0
1.02376 -0.636291 0
-0.407822 -0.434307 0
-0.9165 -1.79778 0
-0.197054 -0.0655472 0
1.7386 -0.789885 0
0.347406 -2.71737 0
-1.09271 -1.52625 0
-0.734408 -3.87815 0
0.00655871 -2.22752 0
0.0652063 -0.0964197 0
-0.765458 -0.925159 0
0.00516263 -0.78224 0
-0.50787 -2.11267 0
0.877943 -1.39025 0
-0.119611 -0.291662 0
-0.0165563 -0.801202 0
0.000456482 -0.00977183 0
-0.729251 -1.43601 0
-0.116204 -0.656661 0
-0.0126758 -0.0217234 0
0.754113 -1.14227 0
-0.147227 -0.349916 0
-1.11036 -1.62517 0
0.00897225 -0.265479 0
-0.154334 -0.576611 0
0.00239259 -0.00771406 0
0.123742 -0.33982 0
0.00258079 -0.270442 0
-0.175211 -0.869163 0
-0.00210548 -0.00537361 0
0.570553 -1.95137 0
-0.0198492 -0.0377756 0
-0.333474 -0.0625231 0
0.0019263 -0.0521035 0
-0.352007 -0.864209 0
-0.0077583 -0.011084 0
-0.292204 -1.29241 0
0.0188402 -0.21761 0
0.745118 -1.11865 0
0.127601 -0.442309 0
-0.151728 -0.0115734 0
-0.0764186 -0.246726 0
-0.28429 -0.163574 0
-2.12324 -1.06596 0
-0.000179774 -0.0504666 0
0.165518 -2.30843 0
-0.338973 -0.540499 0
-0.190879 -1.33232 0
-0.11215 -0.950881 0
-0.623316 -1.08981 0
1.05528 -1.00868 0
-0.0556942 -0.0642894 0
-0.312585 -0.338439 0
-0.0953628 -0.313355 0
-0.320405 -0.203301 0
0.127103 -0.216402 0
0.026353 -0.78505 0
-0.265023 -0.274235 0
-0.72413 -0.940811 0
-0.058992 -1.44703 0
-0.154002 -0.74419 0
-0.195142 -0.158507 0
-0.0682627 -0.0638274 0
-0.426476 -0.487645 0
-0.623712 -1.05596 0
-0.292967 -0.439916 0
-0.0967057 -1.12129 0
0.422792 -1.12882 0
-0.431315 -0.672852 0
-0.134806 -0.0605282 0
-0.0794324 -0.0505702 0
-0.25197 -1.30846 0
-0.632066 -2.00892 0
-0.0376485 -2.40879 0
0.545296 -1.73838 0
-0.364005 -0.326145 0
-0.0877838 -0.0769427 0
-0.16129 -0.0613941 0
-0.585902 -1.08341 0
-0.127318 -2.32559 0
-0.103807 -0.0538554 0
-0.676672 -2.95777 0
-0.191795 -0.672556 0
-0.0671307 -0.0761013 0
-0.150336 -3.59105 0
-0.768644 -0.717904 0
-0.0747575 -0.133946 0
-0.307947 -1.81351 0
0.00751076 -0.189185 0
-0.566294 -0.60647 0
-0.0599305 -0.127331 0
-0.0208788 -0.0721005 0
-0.603885 -1.12987 0
0.0161933 -2.5321 0
-0.989366 -2.3139 0
-0.0156442 -0.0184667 0
-0.218928 -0.365933 0
-0.217341 -0.670872 0
-0.235025 -0.364906 0
-0.0590345 -1.74655 0
-0.00572319 -0.0127708 0
-0.543857 -4.25345 0
0.19842 -0.331187 0
-0.0542489 -0.031954 0
-0.564743 -3.11983 0
0.936004 -0.757366 0
-0.17814 -0.583033 0
-0.15985 -0.860013 0
-0.105323 -0.490361 0
