# vtk DataFile Version 2.0
Unstructured Grid by M++
ASCII
DATASET UNSTRUCTURED_GRID
POINTS 81 float
  1.000000   0.625000 0
  0.750000   0.375000 0
  1.000000   0.000000 0
  0.875000   0.875000 0
  0.750000   0.125000 0
  1.000000   1.000000 0
  0.875000   0.250000 0
  0.625000   0.875000 0
  1.000000   0.750000 0
  0.875000   0.000000 0
  1.000000   0.250000 0
  0.625000   0.375000 0
  0.875000   0.500000 0
  0.625000   0.625000 0
  1.000000   0.500000 0
  0.750000   0.500000 0
  0.750000   1.000000 0
  1.000000   0.125000 0
  0.625000   0.250000 0
  0.750000   0.750000 0
  0.625000   0.000000 0
  0.125000   0.375000 0
  0.000000   0.500000 0
  0.125000   0.625000 0
  0.625000   1.000000 0
  1.000000   0.875000 0
  0.875000   0.125000 0
  0.500000   0.250000 0
  0.625000   0.500000 0
  0.250000   0.625000 0
  0.000000   0.625000 0
  0.375000   0.500000 0
  0.375000   0.000000 0
  0.000000   0.125000 0
  0.125000   0.875000 0
  0.875000   1.000000 0
  0.750000   0.250000 0
  0.375000   0.375000 0
  0.250000   0.375000 0
  0.625000   0.750000 0
  0.125000   0.125000 0
  0.500000   0.000000 0
  0.250000   0.875000 0
  0.125000   0.500000 0
  0.500000   0.375000 0
  0.125000   0.000000 0
  0.250000   0.750000 0
  0.250000   0.500000 0
  0.000000   0.875000 0
  0.875000   0.625000 0
  0.500000   0.750000 0
  0.750000   0.625000 0
  0.250000   0.000000 0
  0.375000   0.750000 0
  0.750000   0.875000 0
  0.625000   0.125000 0
  0.250000   0.250000 0
  0.375000   1.000000 0
  0.375000   0.250000 0
  0.000000   0.375000 0
  0.500000   1.000000 0
  0.875000   0.750000 0
  0.750000   0.000000 0
  0.375000   0.125000 0
  0.500000   0.875000 0
  0.000000   0.000000 0
  0.125000   0.750000 0
  0.500000   0.625000 0
  0.125000   0.250000 0
  0.500000   0.125000 0
  0.250000   1.000000 0
  0.250000   0.125000 0
  0.000000   1.000000 0
  0.375000   0.875000 0
  0.000000   0.750000 0
  0.375000   0.625000 0
  0.000000   0.250000 0
  0.125000   1.000000 0
  1.000000   0.375000 0
  0.500000   0.500000 0
  0.875000   0.375000 0
CELLS 64 320
4 56 71 58 63
4 27 58 69 63
4 41 69 32 63
4 76 33 68 40
4 27 44 58 37
4 79 31 44 37
4 56 38 68 21
4 56 58 38 37
4 52 32 71 63
4 47 38 31 37
4 76 68 59 21
4 22 59 43 21
4 65 45 33 40
4 47 43 38 21
4 52 71 45 40
4 56 68 71 40
4 74 30 66 23
4 46 66 29 23
4 22 43 30 23
4 72 48 77 34
4 46 53 42 73
4 50 64 53 73
4 70 42 57 73
4 74 66 48 34
4 46 42 66 34
4 47 29 43 23
4 70 77 42 34
4 60 57 64 73
4 79 67 31 75
4 47 31 29 75
4 50 53 67 75
4 46 29 53 75
4 10 78 6 80
4 36 6 1 80
4 15 1 12 80
4 36 4 6 26
4 14 12 78 80
4 2 17 9 26
4 36 18 4 55
4 15 28 1 11
4 62 4 20 55
4 10 6 17 26
4 27 18 44 11
4 62 9 4 26
4 27 69 18 55
4 36 1 18 11
4 41 20 69 55
4 79 44 28 11
4 16 24 54 7
4 19 54 39 7
4 50 39 64 7
4 8 25 61 3
4 60 64 24 7
4 79 28 67 13
4 19 51 61 49
4 8 61 0 49
4 15 51 28 13
4 19 39 51 13
4 50 67 39 13
4 19 61 54 3
4 14 0 12 49
4 5 35 25 3
4 15 12 51 49
4 16 54 35 3
CELL_TYPES 64
8
8
8
8
8
8
8
8
8
8
8
8
8
8
8
8
8
8
8
8
8
8
8
8
8
8
8
8
8
8
8
8
8
8
8
8
8
8
8
8
8
8
8
8
8
8
8
8
8
8
8
8
8
8
8
8
8
8
8
8
8
8
8
8
CELL_DATA 64
VECTORS vector_value float
-0.0758033 -0.791558 0
0.103555 -0.547947 0
0.0459394 -0.291568 0
0.262738 -4.39259 0
0.0699146 -0.755335 0
-0.13162 -0.800892 0
-1.10746 -1.75602 0
-0.350532 -1.47992 0
-0.0332613 -0.792721 0
-0.314683 -1.69368 0
-1.23044 -3.46842 0
-0.117574 -1.42509 0
0.219269 -3.24281 0
-0.761154 -3.44429 0
0.516209 -2.64652 0
-0.113267 -1.44752 0
-0.318337 -1.11473 0
-1.20643 -1.57307 0
0.0331496 -1.66334 0
0.0127134 -1.29346 0
-1.16252 -2.60127 0
-1.90239 -2.02279 0
-0.0458137 -0.891459 0
0.0536249 -0.818422 0
0.147878 -1.18647 0
-0.30977 -2.58159 0
-0.146046 -0.756424 0
-0.846749 -1.33933 0
-0.191988 -1.30183 0
-0.465821 -1.83226 0
-0.466843 -1.21272 0
-1.3428 -3.39011 0
0.0124185 -0.0769213 0
0.0485448 -0.0421607 0
0.00437309 -0.0101513 0
0.0827314 -0.0359908 0
0.0126994 -0.0569699 0
0.00897986 -0.189285 0
0.116288 -0.250473 0
0.0334995 -0.0930096 0
0.00155564 -0.145077 0
0.0437103 -0.14195 0
0.0723764 -0.28183 0
0.0305121 -0.0640226 0
0.206897 -0.391969 0
0.0642627 -0.139391 0
0.0520431 -0.627992 0
-0.00472743 -0.47592 0
-1.87747 -0.849601 0
-0.302154 -0.644244 0
-0.527315 -0.549191 0
-0.0253499 -0.0392142 0
-2.24447 -1.79464 0
-0.0947304 -0.439787 0
-0.0125171 -0.0647284 0
0.00194099 -0.0172343 0
-0.0359337 -0.113235 0
-0.17394 -0.373479 0
-0.239018 -0.253931 0
-0.0980727 -0.138394 0
0.00734941 -0.0254956 0
-0.465609 -0.385695 0
0.0156503 -0.0424714 0
-1.34484 -0.689384 0
