# vtk DataFile Version 2.0
Unstructured Grid by M++
ASCII
DATASET UNSTRUCTURED_GRID
POINTS 81 float
  1.000000   0.625000 0
  0.750000   0.375000 0
  1.000000   0.000000 0
  0.875000   0.875000 0
  0.750000   0.125000 0
  1.000000   1.000000 0
  0.875000   0.250000 0
  0.625000   0.875000 0
  1.000000   0.750000 0
  0.875000   0.000000 0
  1.000000   0.250000 0
  0.625000   0.375000 0
  0.875000   0.500000 0
  0.625000   0.625000 0
  1.000000   0.500000 0
  0.750000   0.500000 0
  0.750000   1.000000 0
  1.000000   0.125000 0
  0.625000   0.250000 0
  0.750000   0.750000 0
  0.625000   0.000000 0
  0.125000   0.375000 0
  0.000000   0.500000 0
  0.125000   0.625000 0
  0.625000   1.000000 0
  1.000000   0.875000 0
  0.875000   0.125000 0
  0.500000   0.250000 0
  0.625000   0.500000 0
  0.250000   0.625000 0
  0.000000   0.625000 0
  0.375000   0.500000 0
  0.375000   0.000000 0
  0.000000   0.125000 0
  0.125000   0.875000 0
  0.875000   1.000000 0
  0.750000   0.250000 0
  0.375000   0.375000 0
  0.250000   0.375000 0
  0.625000   0.750000 0
  0.125000   0.125000 0
  0.500000   0.000000 0
  0.250000   0.875000 0
  0.125000   0.500000 0
  0.500000   0.375000 0
  0.125000   0.000000 0
  0.250000   0.750000 0
  0.250000   0.500000 0
  0.000000   0.875000 0
  0.875000   0.625000 0
  0.500000   0.750000 0
  0.750000   0.625000 0
  0.250000   0.000000 0
  0.375000   0.750000 0
  0.750000   0.875000 0
  0.625000   0.125000 0
  0.250000   0.250000 0
  0.375000   1.000000 0
  0.375000   0.250000 0
  0.000000   0.375000 0
  0.500000   1.000000 0
  0.875000   0.750000 0
  0.750000   0.000000 0
  0.375000   0.125000 0
  0.500000   0.875000 0
  0.000000   0.000000 0
  0.125000   0.750000 0
  0.500000   0.625000 0
  0.125000   0.250000 0
  0.500000   0.125000 0
  0.250000   1.000000 0
  0.250000   0.125000 0
  0.000000   1.000000 0
  0.375000   0.875000 0
  0.000000   0.750000 0
  0.375000   0.625000 0
  0.000000   0.250000 0
  0.125000   1.000000 0
  1.000000   0.375000 0
  0.500000   0.500000 0
  0.875000   0.375000 0
CELLS 64 320
4 56 71 58 63
4 27 58 69 63
4 41 69 32 63
4 76 33 68 40
4 27 44 58 37
4 79 31 44 37
4 56 38 68 21
4 56 58 38 37
4 52 32 71 63
4 47 38 31 37
4 76 68 59 21
4 22 59 43 21
4 65 45 33 40
4 47 43 38 21
4 52 71 45 40
4 56 68 71 40
4 74 30 66 23
4 46 66 29 23
4 22 43 30 23
4 72 48 77 34
4 46 53 42 73
4 50 64 53 73
4 70 42 57 73
4 74 66 48 34
4 46 42 66 34
4 47 29 43 23
4 70 77 42 34
4 60 57 64 73
4 79 67 31 75
4 47 31 29 75
4 50 53 67 75
4 46 29 53 75
4 10 78 6 80
4 36 6 1 80
4 15 1 12 80
4 36 4 6 26
4 14 12 78 80
4 2 17 9 26
4 36 18 4 55
4 15 28 1 11
4 62 4 20 55
4 10 6 17 26
4 27 18 44 11
4 62 9 4 26
4 27 69 18 55
4 36 1 18 11
4 41 20 69 55
4 79 44 28 11
4 16 24 54 7
4 19 54 39 7
4 50 39 64 7
4 8 25 61 3
4 60 64 24 7
4 79 28 67 13
4 19 51 61 49
4 8 61 0 49
4 15 51 28 13
4 19 39 51 13
4 50 67 39 13
4 19 61 54 3
4 14 0 12 49
4 5 35 25 3
4 15 12 51 49
4 16 54 35 3
CELL_TYPES 64
8
8
8
8
8
8
8
8
8
8
8
8
8
8
8
8
8
8
8
8
8
8
8
8
8
8
8
8
8
8
8
8
8
8
8
8
8
8
8
8
8
8
8
8
8
8
8
8
8
8
8
8
8
8
8
8
8
8
8
8
8
8
8
8
CELL_DATA 64
VECTORS vector_value float
0.00356441 -0.0514549 0
0.384271 -2.26664 0
0.342484 -1.1162 0
-0.379764 -2.88164 0
1.22915 -2.84378 0
0.654888 -1.89265 0
-0.102435 -1.72206 0
0.950781 -0.389386 0
-0.0179761 -0.122698 0
0.528754 -1.17018 0
-0.117619 -1.67116 0
0.264494 -2.28433 0
0.0727923 -2.82737 0
0.297044 -1.36226 0
0.0355935 -0.204941 0
-0.000999098 -0.170033 0
-0.590783 -1.52941 0
-0.907997 -3.84561 0
-0.163581 -2.65588 0
0.197883 -0.555823 0
-2.16395 -3.90115 0
-0.0530526 -0.0261406 0
-1.29444 -2.14502 0
-0.184976 -0.763955 0
-1.09732 -1.84059 0
0.316603 -1.45885 0
0.0356044 -1.59346 0
-2.99229 -1.07328 0
0.272564 -0.621855 0
1.12542 -1.96602 0
0.00595271 -0.0732152 0
0.271198 -1.13497 0
0.0213031 -0.410473 0
0.0231057 -0.229798 0
-0.319202 -0.479129 0
0.0179758 -0.0768901 0
-0.0875028 -0.565099 0
0.00753616 -0.556066 0
-0.04826 -0.118369 0
-0.0344519 -0.0154753 0
-0.021478 -0.055898 0
0.0482275 -0.523989 0
0.164094 -0.339605 0
0.00771839 -0.0394008 0
0.460167 -1.91098 0
-0.34219 -0.393741 0
0.468659 -3.07742 0
-0.00401522 -0.230876 0
-1.12959 -0.881056 0
-0.442404 -0.99337 0
-0.200031 -0.0363591 0
0.00937869 -0.0410618 0
-1.95508 -0.319451 0
-0.0822998 -0.206947 0
0.108973 -0.397002 0
0.139181 -0.287519 0
0.00605176 -0.0410992 0
0.132163 -0.534865 0
-0.0833063 -0.197398 0
0.186312 -0.397378 0
0.118617 -0.538387 0
-0.477452 -0.33109 0
0.310976 -0.510958 0
-1.25881 -1.10082 0
