# vtk DataFile Version 2.0
Unstructured Grid by M++
ASCII
DATASET UNSTRUCTURED_GRID
POINTS 81 float
  1.000000   0.625000 0
  0.750000   0.375000 0
  1.000000   0.000000 0
  0.875000   0.875000 0
  0.750000   0.125000 0
  1.000000   1.000000 0
  0.875000   0.250000 0
  0.625000   0.875000 0
  1.000000   0.750000 0
  0.875000   0.000000 0
  1.000000   0.250000 0
  0.625000   0.375000 0
  0.875000   0.500000 0
  0.625000   0.625000 0
  1.000000   0.500000 0
  0.750000   0.500000 0
  0.750000   1.000000 0
  1.000000   0.125000 0
  0.625000   0.250000 0
  0.750000   0.750000 0
  0.625000   0.000000 0
  0.125000   0.375000 0
  0.000000   0.500000 0
  0.125000   0.625000 0
  0.625000   1.000000 0
  1.000000   0.875000 0
  0.875000   0.125000 0
  0.500000   0.250000 0
  0.625000   0.500000 0
  0.250000   0.625000 0
  0.000000   0.625000 0
  0.375000   0.500000 0
  0.375000   0.000000 0
  0.000000   0.125000 0
  0.125000   0.875000 0
  0.875000   1.000000 0
  0.750000   0.250000 0
  0.375000   0.375000 0
  0.250000   0.375000 0
  0.625000   0.750000 0
  0.125000   0.125000 0
  0.500000   0.000000 0
  0.250000   0.875000 0
  0.125000   0.500000 0
  0.500000   0.375000 0
  0.125000   0.000000 0
  0.250000   0.750000 0
  0.250000   0.500000 0
  0.000000   0.875000 0
  0.875000   0.625000 0
  0.500000   0.750000 0
  0.750000   0.625000 0
  0.250000   0.000000 0
  0.375000   0.750000 0
  0.750000   0.875000 0
  0.625000   0.125000 0
  0.250000   0.250000 0
  0.375000   1.000000 0
  0.375000   0.250000 0
  0.000000   0.375000 0
  0.500000   1.000000 0
  0.875000   0.750000 0
  0.750000   0.000000 0
  0.375000   0.125000 0
  0.500000   0.875000 0
  0.000000   0.000000 0
  0.125000   0.750000 0
  0.500000   0.625000 0
  0.125000   0.250000 0
  0.500000   0.125000 0
  0.250000   1.000000 0
  0.250000   0.125000 0
  0.000000   1.000000 0
  0.375000   0.875000 0
  0.000000   0.750000 0
  0.375000   0.625000 0
  0.000000   0.250000 0
  0.125000   1.000000 0
  1.000000   0.375000 0
  0.500000   0.500000 0
  0.875000   0.375000 0
CELLS 64 320
4 56 71 58 63
4 27 58 69 63
4 41 69 32 63
4 76 33 68 40
4 27 44 58 37
4 79 31 44 37
4 56 38 68 21
4 56 58 38 37
4 52 32 71 63
4 47 38 31 37
4 76 68 59 21
4 22 59 43 21
4 65 45 33 40
4 47 43 38 21
4 52 71 45 40
4 56 68 71 40
4 74 30 66 23
4 46 66 29 23
4 22 43 30 23
4 72 48 77 34
4 46 53 42 73
4 50 64 53 73
4 70 42 57 73
4 74 66 48 34
4 46 42 66 34
4 47 29 43 23
4 70 77 42 34
4 60 57 64 73
4 79 67 31 75
4 47 31 29 75
4 50 53 67 75
4 46 29 53 75
4 10 78 6 80
4 36 6 1 80
4 15 1 12 80
4 36 4 6 26
4 14 12 78 80
4 2 17 9 26
4 36 18 4 55
4 15 28 1 11
4 62 4 20 55
4 10 6 17 26
4 27 18 44 11
4 62 9 4 26
4 27 69 18 55
4 36 1 18 11
4 41 20 69 55
4 79 44 28 11
4 16 24 54 7
4 19 54 39 7
4 50 39 64 7
4 8 25 61 3
4 60 64 24 7
4 79 28 67 13
4 19 51 61 49
4 8 61 0 49
4 15 51 28 13
4 19 39 51 13
4 50 67 39 13
4 19 61 54 3
4 14 0 12 49
4 5 35 25 3
4 15 12 51 49
4 16 54 35 3
CELL_TYPES 64
8
8
8
8
8
8
8
8
8
8
8
8
8
8
8
8
8
8
8
8
8
8
8
8
8
8
8
8
8
8
8
8
8
8
8
8
8
8
8
8
8
8
8
8
8
8
8
8
8
8
8
8
8
8
8
8
8
8
8
8
8
8
8
8
CELL_DATA 64
VECTORS vector_value float
0.350746 -0.74386 0
0.324221 -0.974603 0
0.114285 -1.23174 0
-0.0657074 -3.33967 0
0.232646 -1.08021 0
0.102275 -1.13929 0
-0.0490921 -1.91938 0
0.216878 -0.685466 0
0.13765 -0.661167 0
-0.026104 -1.00539 0
-0.174437 -3.15911 0
-0.168473 -2.78117 0
-0.0335807 -3.48221 0
-0.225118 -2.08066 0
0.0193858 -0.9438 0
0.0713623 -1.33972 0
-0.478772 -1.8985 0
-1.60974 -1.88536 0
-0.235244 -2.23365 0
0.161355 -0.71535 0
-1.40248 -1.87621 0
-1.10721 -1.43116 0
0.204226 -1.16228 0
-0.251845 -0.996864 0
-0.658877 -0.962818 0
-0.344021 -2.81428 0
0.34522 -0.91077 0
-0.589967 -1.7937 0
-0.0857825 -1.08481 0
-0.0479401 -0.85611 0
-1.17447 -1.19632 0
-1.66663 -1.38986 0
0.0017604 -0.0654111 0
-0.0854813 -0.186968 0
-0.226685 -0.488681 0
-0.00546386 -0.0472241 0
-0.0300664 -0.105798 0
-0.00390157 -0.0713497 0
-0.0705736 -0.521076 0
-0.0726978 -0.291041 0
0.034609 -0.530933 0
0.00224924 -0.0789017 0
0.0695175 -0.263493 0
0.0124628 -0.0849911 0
0.116208 -0.95494 0
-0.217184 -0.639961 0
0.0263868 -0.993803 0
0.034056 -0.107977 0
-0.715499 -0.783158 0
-0.579327 -0.546919 0
-0.941164 -1.03632 0
-0.245999 -0.675975 0
-0.87366 -1.10442 0
-0.0380125 -0.0882835 0
-0.265484 -0.316677 0
-0.0814125 -0.41547 0
-0.0212919 -0.320319 0
-0.430461 -0.439956 0
-0.704759 -0.457852 0
-0.542896 -0.473739 0
-0.133291 -0.364744 0
0.0256859 -1.21644 0
-0.084579 -0.237809 0
-0.185951 -0.313889 0
