# vtk DataFile Version 2.0
Unstructured Grid by M++
ASCII
DATASET UNSTRUCTURED_GRID
POINTS 289 float
  0.562500   1.000000 0
  0.562500   0.625000 0
  0.625000   1.000000 0
  0.562500   0.937500 0
  0.562500   0.562500 0
  0.625000   0.937500 0
  0.562500   0.875000 0
  0.625000   0.750000 0
  0.625000   0.625000 0
  0.562500   0.812500 0
  0.562500   0.750000 0
  0.562500   0.687500 0
  0.625000   0.875000 0
  0.625000   0.812500 0
  0.625000   0.687500 0
  0.687500   0.125000 0
  0.875000   0.062500 0
  0.625000   0.125000 0
  0.625000   0.187500 0
  0.625000   0.250000 0
  0.812500   0.187500 0
  1.000000   0.125000 0
  0.687500   0.187500 0
  0.750000   0.125000 0
  0.937500   0.062500 0
  0.937500   0.125000 0
  0.750000   0.187500 0
  0.812500   0.062500 0
  0.812500   0.125000 0
  0.875000   0.687500 0
  0.187500   0.250000 0
  0.437500   0.250000 0
  0.375000   0.187500 0
  0.812500   0.625000 0
  0.125000   0.187500 0
  0.937500   0.750000 0
  0.250000   0.312500 0
  0.500000   0.312500 0
  0.625000   0.062500 0
  0.437500   0.500000 0
  0.375000   0.125000 0
  0.437500   0.187500 0
  0.437500   0.437500 0
  0.437500   0.375000 0
  0.875000   0.875000 0
  0.187500   0.375000 0
  0.687500   0.562500 0
  0.687500   0.625000 0
  0.000000   0.125000 0
  0.937500   0.625000 0
  0.250000   0.125000 0
  0.375000   0.062500 0
  0.375000   0.000000 0
  0.812500   0.500000 0
  0.125000   0.000000 0
  0.937500   0.937500 0
  0.250000   0.437500 0
  0.687500   0.875000 0
  0.687500   0.937500 0
  0.000000   0.437500 0
  0.500000   0.500000 0
  0.500000   0.437500 0
  0.750000   0.937500 0
  0.750000   1.000000 0
  0.062500   0.500000 0
  1.000000   1.000000 0
  0.312500   0.500000 0
  0.875000   0.562500 0
  0.187500   0.062500 0
  0.437500   0.125000 0
  0.437500   0.062500 0
  0.500000   0.375000 0
  0.937500   0.812500 0
  0.937500   0.875000 0
  0.250000   0.375000 0
  0.687500   0.812500 0
  0.000000   0.375000 0
  0.750000   0.562500 0
  0.062500   0.125000 0
  1.000000   0.562500 0
  1.000000   0.625000 0
  0.312500   0.125000 0
  0.562500   0.125000 0
  0.437500   0.000000 0
  0.875000   0.437500 0
  0.875000   0.500000 0
  0.187500   0.000000 0
  0.937500   0.562500 0
  0.937500   0.500000 0
  0.250000   0.062500 0
  0.687500   0.500000 0
  0.000000   0.062500 0
  0.500000   0.062500 0
  1.000000   0.875000 0
  1.000000   0.937500 0
  0.312500   0.437500 0
  0.750000   0.875000 0
  0.062500   0.437500 0
  0.812500   0.937500 0
  0.125000   0.500000 0
  0.375000   0.500000 0
  0.625000   0.562500 0
  0.625000   0.500000 0
  0.437500   0.312500 0
  0.875000   0.812500 0
  0.875000   0.750000 0
  0.187500   0.312500 0
  0.812500   0.687500 0
  0.812500   0.750000 0
  0.125000   0.250000 0
  0.375000   0.250000 0
  1.000000   0.687500 0
  0.312500   0.187500 0
  0.750000   0.687500 0
  0.750000   0.625000 0
  0.062500   0.187500 0
  0.562500   0.250000 0
  0.562500   0.187500 0
  0.375000   1.000000 0
  0.500000   0.562500 0
  0.500000   0.250000 0
  0.750000   0.250000 0
  0.500000   0.125000 0
  0.500000   0.187500 0
  1.000000   0.187500 0
  0.625000   0.375000 0
  0.875000   0.375000 0
  1.000000   0.437500 0
  0.312500   0.000000 0
  0.562500   0.000000 0
  0.812500   0.000000 0
  0.250000   0.687500 0
  0.000000   0.687500 0
  0.500000   1.000000 0
  0.250000   1.000000 0
  0.000000   1.000000 0
  0.437500   0.687500 0
  0.437500   0.625000 0
  0.187500   0.625000 0
  0.687500   0.750000 0
  0.000000   0.312500 0
  0.000000   0.250000 0
  0.375000   0.375000 0
  0.375000   0.312500 0
  0.812500   0.812500 0
  0.125000   0.312500 0
  0.875000   0.625000 0
  0.187500   0.187500 0
  0.187500   0.125000 0
  0.937500   1.000000 0
  0.250000   0.562500 0
  0.250000   0.500000 0
  0.687500   1.000000 0
  0.000000   0.500000 0
  0.687500   0.687500 0
  0.000000   0.187500 0
  0.937500   0.687500 0
  0.250000   0.250000 0
  0.250000   0.187500 0
  0.187500   0.687500 0
  0.000000   0.750000 0
  0.250000   0.750000 0
  0.125000   0.625000 0
  0.750000   0.750000 0
  0.062500   0.250000 0
  0.875000   0.937500 0
  0.187500   0.500000 0
  0.187500   0.437500 0
  0.812500   0.562500 0
  0.125000   0.125000 0
  0.125000   0.062500 0
  0.375000   0.625000 0
  0.375000   0.687500 0
  1.000000   0.750000 0
  0.312500   0.250000 0
  0.312500   0.312500 0
  0.812500   0.312500 0
  0.562500   0.312500 0
  0.375000   0.750000 0
  0.500000   0.625000 0
  0.250000   0.625000 0
  0.312500   0.687500 0
  0.750000   0.812500 0
  0.062500   0.312500 0
  0.062500   0.375000 0
  1.000000   0.812500 0
  0.312500   0.375000 0
  0.562500   0.375000 0
  0.687500   0.437500 0
  0.000000   0.000000 0
  0.500000   0.000000 0
  0.937500   0.437500 0
  0.250000   0.000000 0
  0.375000   0.437500 0
  0.812500   0.875000 0
  0.125000   0.375000 0
  0.125000   0.437500 0
  0.625000   0.437500 0
  1.000000   0.500000 0
  0.312500   0.062500 0
  0.750000   0.500000 0
  0.062500   0.000000 0
  0.062500   0.062500 0
  0.562500   0.062500 0
  0.062500   0.750000 0
  0.312500   0.750000 0
  0.312500   0.625000 0
  0.312500   0.562500 0
  0.062500   0.562500 0
  0.187500   1.000000 0
  0.437500   0.562500 0
  0.875000   1.000000 0
  0.187500   0.562500 0
  0.500000   0.937500 0
  0.250000   0.937500 0
  0.312500   1.000000 0
  0.125000   0.750000 0
  0.125000   0.687500 0
  1.000000   0.000000 0
  0.000000   0.937500 0
  0.000000   0.875000 0
  0.875000   0.125000 0
  0.875000   0.187500 0
  0.062500   0.812500 0
  0.312500   0.812500 0
  0.000000   0.812500 0
  0.000000   0.625000 0
  0.000000   0.562500 0
  0.062500   1.000000 0
  0.062500   0.937500 0
  0.937500   0.187500 0
  0.937500   0.250000 0
  0.062500   0.687500 0
  0.062500   0.625000 0
  0.125000   1.000000 0
  1.000000   0.250000 0
  1.000000   0.312500 0
  0.062500   0.875000 0
  0.125000   0.812500 0
  0.375000   0.812500 0
  0.125000   0.875000 0
  0.375000   0.937500 0
  0.375000   0.875000 0
  0.187500   0.750000 0
  0.187500   0.812500 0
  0.437500   0.812500 0
  0.187500   0.875000 0
  0.437500   0.875000 0
  0.375000   0.562500 0
  0.812500   1.000000 0
  0.125000   0.562500 0
  0.437500   1.000000 0
  0.437500   0.937500 0
  0.187500   0.937500 0
  0.125000   0.937500 0
  0.500000   0.687500 0
  0.500000   0.750000 0
  0.500000   0.812500 0
  0.250000   0.812500 0
  0.250000   0.875000 0
  0.500000   0.875000 0
  0.437500   0.750000 0
  0.312500   0.875000 0
  0.312500   0.937500 0
  0.687500   0.250000 0
  0.687500   0.312500 0
  0.937500   0.312500 0
  0.875000   0.250000 0
  0.625000   0.000000 0
  0.875000   0.000000 0
  0.687500   0.375000 0
  0.937500   0.375000 0
  0.875000   0.312500 0
  0.625000   0.312500 0
  0.687500   0.000000 0
  0.937500   0.000000 0
  0.750000   0.312500 0
  0.750000   0.375000 0
  1.000000   0.375000 0
  0.812500   0.250000 0
  0.562500   0.437500 0
  0.562500   0.500000 0
  0.687500   0.062500 0
  0.750000   0.437500 0
  0.750000   0.000000 0
  0.750000   0.062500 0
  1.000000   0.062500 0
  0.812500   0.375000 0
  0.812500   0.437500 0
CELLS 256 1280
4 169 170 148 68
4 151 166 56 167
4 195 45 196 167
4 54 170 201 202
4 109 34 30 147
4 40 32 81 112
4 192 89 86 68
4 48 91 78 202
4 99 64 196 97
4 71 43 37 103
4 74 186 56 95
4 109 164 34 115
4 50 81 158 112
4 122 69 92 70
4 195 145 45 106
4 110 143 174 175
4 157 30 158 147
4 40 69 32 41
4 50 158 148 147
4 141 155 164 115
4 122 123 69 41
4 142 186 143 175
4 60 39 61 42
4 40 51 69 70
4 120 31 123 41
4 157 174 36 175
4 50 148 89 68
4 48 78 155 115
4 52 83 51 70
4 151 56 66 95
4 71 61 43 42
4 169 148 34 147
4 100 193 39 42
4 40 81 51 199
4 110 174 32 112
4 109 30 145 106
4 100 66 193 95
4 169 34 78 115
4 190 92 83 70
4 50 89 81 199
4 54 86 170 68
4 74 56 45 167
4 142 143 43 103
4 153 59 64 97
4 99 196 166 167
4 169 78 170 202
4 142 193 186 95
4 192 128 89 199
4 74 45 36 106
4 110 31 143 103
4 76 184 59 97
4 142 43 193 42
4 52 51 128 199
4 189 201 91 202
4 120 37 31 103
4 74 36 186 175
4 195 196 184 97
4 141 164 140 183
4 157 158 174 112
4 109 145 164 183
4 195 184 145 183
4 110 32 31 41
4 157 36 30 106
4 76 140 184 183
4 171 172 206 181
4 178 172 261 136
4 256 261 255 136
4 256 257 261 245
4 180 150 206 207
4 60 119 39 210
4 118 215 241 263
4 178 205 172 181
4 216 243 238 244
4 162 217 233 232
4 180 206 131 181
4 179 137 119 210
4 216 204 217 232
4 220 237 219 229
4 216 217 243 159
4 259 258 262 224
4 240 254 237 229
4 153 64 227 208
4 161 205 258 224
4 240 237 238 223
4 226 227 233 208
4 234 228 254 229
4 171 248 137 210
4 160 132 204 232
4 180 131 138 159
4 133 251 213 252
4 171 206 248 207
4 162 138 217 159
4 161 258 243 244
4 220 225 237 223
4 151 150 166 212
4 260 247 257 245
4 259 262 214 263
4 151 66 150 207
4 234 254 209 253
4 162 233 250 208
4 242 241 262 263
4 171 137 172 136
4 161 243 131 159
4 160 204 225 223
4 161 131 205 181
4 179 255 137 136
4 216 238 204 223
4 100 39 248 210
4 260 213 247 252
4 226 233 132 232
4 134 214 215 263
4 180 138 150 212
4 178 261 239 245
4 259 246 258 244
4 178 239 205 224
4 240 238 246 244
4 242 262 239 224
4 99 250 64 208
4 240 246 254 253
4 242 239 247 245
4 135 219 228 229
4 99 166 250 212
4 259 214 246 253
4 118 241 251 252
4 100 248 66 207
4 134 209 214 253
4 162 250 138 212
4 242 247 241 252
4 71 187 61 280
4 102 281 197 280
4 122 92 82 203
4 17 18 82 117
4 122 82 123 117
4 19 264 273 265
4 267 279 222 20
4 125 273 270 265
4 267 272 279 176
4 19 116 18 117
4 21 25 286 24
4 23 28 26 20
4 23 285 28 27
4 218 286 275 24
4 85 53 84 288
4 235 236 231 266
4 221 222 28 20
4 267 222 231 230
4 268 38 129 203
4 125 270 197 188
4 126 287 272 176
4 277 270 276 265
4 267 231 272 266
4 125 197 187 280
4 190 129 92 203
4 277 276 287 176
4 19 18 264 22
4 17 82 38 203
4 102 197 90 188
4 126 84 287 288
4 284 130 285 27
4 121 276 264 265
4 71 37 187 177
4 120 123 116 117
4 198 88 127 191
4 221 16 25 24
4 23 26 15 22
4 121 279 276 176
4 235 231 124 230
4 125 187 273 177
4 278 271 236 266
4 277 287 283 288
4 284 285 274 282
4 278 127 271 191
4 269 275 16 24
4 200 283 53 288
4 23 15 285 282
4 121 26 279 20
4 21 124 25 230
4 19 273 116 177
4 200 90 283 188
4 126 271 84 191
4 269 16 130 27
4 17 38 15 282
4 221 25 222 230
4 121 264 26 22
4 120 116 37 177
4 60 61 281 280
4 277 283 270 188
4 126 272 271 266
4 268 274 38 282
4 85 84 88 191
4 17 15 18 22
4 221 28 16 27
4 93 94 73 55
4 85 88 67 87
4 80 49 79 87
4 44 104 73 72
4 146 33 67 168
4 211 165 149 55
4 8 47 14 154
4 105 104 108 144
4 105 108 29 107
4 7 139 13 75
4 44 165 194 98
4 200 53 77 168
4 8 1 101 4
4 2 5 152 58
4 260 6 213 3
4 105 35 104 72
4 96 57 182 75
4 7 14 139 154
4 146 29 33 107
4 7 13 10 9
4 12 13 57 75
4 85 67 53 168
4 44 73 165 55
4 63 152 62 58
4 8 101 47 46
4 96 182 194 144
4 60 281 119 4
4 12 5 6 3
4 173 185 35 72
4 65 149 94 55
4 146 67 49 87
4 114 113 47 154
4 163 108 182 144
4 12 6 13 9
4 173 35 111 156
4 163 182 139 75
4 260 257 6 9
4 105 29 35 156
4 163 139 113 154
4 256 10 257 9
4 146 49 29 156
4 163 113 108 107
4 80 111 49 156
4 102 101 281 4
4 12 57 5 58
4 44 194 104 144
4 96 194 62 98
4 2 0 5 3
4 93 73 185 72
4 179 119 1 4
4 200 77 90 46
4 114 33 113 107
4 7 10 14 11
4 96 62 57 58
4 133 213 0 3
4 102 90 101 46
4 256 255 10 11
4 63 62 249 98
4 114 47 77 46
4 179 1 255 11
4 211 249 165 98
4 114 77 33 168
4 198 79 88 87
4 8 14 1 11
CELL_TYPES 256
8
8
8
8
8
8
8
8
8
8
8
8
8
8
8
8
8
8
8
8
8
8
8
8
8
8
8
8
8
8
8
8
8
8
8
8
8
8
8
8
8
8
8
8
8
8
8
8
8
8
8
8
8
8
8
8
8
8
8
8
8
8
8
8
8
8
8
8
8
8
8
8
8
8
8
8
8
8
8
8
8
8
8
8
8
8
8
8
8
8
8
8
8
8
8
8
8
8
8
8
8
8
8
8
8
8
8
8
8
8
8
8
8
8
8
8
8
8
8
8
8
8
8
8
8
8
8
8
8
8
8
8
8
8
8
8
8
8
8
8
8
8
8
8
8
8
8
8
8
8
8
8
8
8
8
8
8
8
8
8
8
8
8
8
8
8
8
8
8
8
8
8
8
8
8
8
8
8
8
8
8
8
8
8
8
8
8
8
8
8
8
8
8
8
8
8
8
8
8
8
8
8
8
8
8
8
8
8
8
8
8
8
8
8
8
8
8
8
8
8
8
8
8
8
8
8
8
8
8
8
8
8
8
8
8
8
8
8
8
8
8
8
8
8
8
8
8
8
8
8
8
8
8
8
8
8
CELL_DATA 256
VECTORS vector_value float
0.135881 -2.5429 0
-0.686171 -0.750282 0
-0.549231 -0.659228 0
-0.113602 -1.9608 0
1.11148 -4.21165 0
-0.158612 -0.551988 0
0.149533 -2.48989 0
-0.172397 -1.96953 0
-0.455774 -1.14713 0
-0.779826 -0.663143 0
-1.36611 -1.13883 0
0.933944 -3.47496 0
0.549233 -1.39404 0
-0.32465 -0.511907 0
-0.885104 -1.47483 0
-0.397062 -0.420025 0
0.201808 -2.11163 0
-0.376096 -0.512828 0
1.35974 -2.84914 0
0.16696 -1.46525 0
-0.381557 -0.733898 0
-0.942804 -0.678922 0
-2.31534 -0.349465 0
-0.358338 -0.71314 0
-0.318349 -0.807419 0
-0.736461 -0.964809 0
0.878294 -3.10298 0
-0.167769 -1.57614 0
-0.104883 -0.8144 0
-1.07623 -0.894948 0
-1.82594 -0.642376 0
1.06229 -3.94416 0
-1.77586 -0.274301 0
0.221367 -1.2519 0
-0.304318 -0.416279 0
0.0613518 -2.9779 0
-1.27619 -0.588591 0
-0.0178258 -2.38916 0
-0.0883271 -0.388653 0
0.912918 -2.05818 0
-0.0116813 -2.10218 0
-1.04128 -1.24844 0
-0.80738 -0.561316 0
-0.562561 -4.53275 0
-0.360347 -0.616925 0
-0.257988 -2.03143 0
-1.69538 -0.862967 0
0.317912 -2.22551 0
-1.15631 -1.26065 0
-0.367533 -0.564744 0
-0.216441 -5.16992 0
-1.7081 -0.528008 0
0.160383 -2.06994 0
-0.0736612 -2.26546 0
-0.30026 -0.597007 0
-1.17353 -1.292 0
-0.553075 -1.08854 0
0.884009 -2.78233 0
-0.316837 -0.731865 0
1.63543 -3.51165 0
0.36587 -1.9124 0
-0.232052 -0.416016 0
-0.929967 -1.37588 0
0.813724 -4.81696 0
-0.256127 -0.24116 0
-0.212166 -0.13589 0
-0.119258 -0.441311 0
0.138965 -0.858888 0
-0.413718 -0.382147 0
-0.600566 -0.0589259 0
0.729366 -0.752253 0
-0.448718 -0.394755 0
-0.344871 -0.871675 0
-0.465422 -1.73952 0
-0.33493 -0.303794 0
-0.309493 -0.0936179 0
-0.575412 -1.75988 0
-0.229401 -1.71102 0
-0.639769 -1.08865 0
-0.161825 -0.205687 0
-0.444115 -1.30162 0
-0.24638 -3.32574 0
-0.61105 -0.331058 0
-0.187683 -1.29372 0
-0.15153 -2.93311 0
-0.534184 -1.22975 0
-0.560728 -0.184424 0
-0.227462 -2.03143 0
-0.474508 -0.51959 0
0.309039 -1.54252 0
-0.548455 -0.293039 0
-0.501278 -0.895291 0
-0.509189 -0.335067 0
-0.0670078 -1.98807 0
-0.202396 -0.369535 0
0.339634 -1.64886 0
-0.0585821 -0.290846 0
-0.452877 -0.625841 0
-0.53485 -0.697704 0
-0.402598 -2.08236 0
0.101452 -0.493134 0
-0.27357 -0.156933 0
-0.616675 -0.40931 0
0.0216155 -1.89147 0
-0.696365 -0.441765 0
-0.296925 -0.283034 0
-0.0872856 -1.5769 0
-0.656 -0.0541367 0
0.235638 -1.74582 0
-0.229966 -2.6845 0
0.240356 -0.694981 0
-0.302353 -0.376896 0
-0.42695 -0.495547 0
-0.237649 -0.307368 0
-0.747472 -0.588001 0
-0.296179 -0.709599 0
-0.25012 -0.48315 0
-0.605079 -2.14715 0
-0.384606 -0.615936 0
-0.205769 -0.978155 0
-0.186738 -1.24786 0
-0.209826 -0.552529 0
-0.252596 -0.488785 0
0.770796 -1.15714 0
-0.739389 -0.416254 0
-0.22873 -0.792132 0
-0.432558 -0.733119 0
0.256182 -1.29928 0
-1.78468 -1.18462 0
-2.91742 -2.47005 0
-0.117925 -0.45005 0
-0.0958555 -0.235167 0
-0.216364 -0.610661 0
-0.0319881 -0.359446 0
-0.00257874 -0.185986 0
-0.0625768 -0.586753 0
-0.0103075 -0.187965 0
-0.11301 -0.315629 0
0.00171647 -0.110246 0
0.0410534 -0.36926 0
0.0867864 -0.338597 0
-0.00046668 -0.109913 0
-0.0620151 -0.134472 0
-0.00705943 -0.114966 0
0.0103637 -0.16781 0
-0.000850121 -0.100216 0
0.0114052 -0.278986 0
-0.233721 -0.802468 0
-0.00744269 -0.190325 0
0.0127341 -0.299947 0
-0.0111316 -0.0933545 0
-0.962819 -1.65879 0
-0.0169966 -0.276909 0
-0.00949678 -0.241326 0
-0.0356068 -0.231546 0
-0.0376116 -0.215195 0
-1.38107 -2.17793 0
-0.0158515 -0.163753 0
0.0424455 -0.333559 0
0.0422661 -0.383391 0
-0.633982 -0.995792 0
-0.259867 -0.764969 0
-0.0308538 -0.17428 0
0.00848698 -0.110835 0
0.0139917 -0.282334 0
0.00715416 -0.242097 0
-0.00109126 -0.0985149 0
-0.342226 -0.809091 0
-8.98102e-05 -0.115211 0
0.00867942 -0.253517 0
0.0145978 -0.0891841 0
-0.00984404 -0.126667 0
0.0257753 -0.162821 0
-0.00873164 -0.174169 0
0.0141438 -0.15923 0
0.021676 -0.306147 0
0.00352867 -0.105645 0
-0.221345 -0.519592 0
-0.196419 -0.684512 0
-0.026675 -0.109571 0
0.0437353 -0.272006 0
-0.0441385 -0.169644 0
0.00932241 -0.107345 0
0.0266411 -0.361928 0
-0.354464 -0.90485 0
-2.70049 -0.915072 0
-0.0483094 -0.362303 0
-0.0045066 -0.101339 0
-0.01213 -0.159798 0
-0.0656655 -0.115122 0
-0.0431937 -0.170416 0
0.0687887 -0.264239 0
0.0618568 -0.81682 0
-0.0914451 -0.145974 0
-0.0261193 -0.302354 0
-0.163193 -0.689731 0
-0.270256 -0.196904 0
-0.222379 -1.1243 0
-0.0927022 -3.2763 0
-0.394238 -0.630839 0
-0.30501 -0.473736 0
-0.0764952 -1.59719 0
-0.23124 -0.954242 0
-0.155545 -0.231739 0
-0.451024 -1.22298 0
0.0708502 -0.849442 0
0.146867 -1.31828 0
-0.270685 -0.535846 0
-0.184791 -1.75185 0
0.19832 -2.27729 0
-0.336807 -0.32154 0
0.517405 -1.32446 0
-0.00904827 -1.06864 0
-0.0787299 -0.0875313 0
-0.0013945 -0.942282 0
-0.0832344 -1.30337 0
-0.851089 -4.13676 0
-0.331852 -1.09471 0
-0.954631 -0.506648 0
0.0897206 -0.545041 0
-0.110384 -0.711033 0
-0.135643 -0.74003 0
-0.110912 -0.19144 0
-0.626009 -2.16453 0
-0.382953 -1.30076 0
0.20925 -0.796163 0
-0.067351 -0.506183 0
-0.28056 -1.60111 0
0.461876 -1.35883 0
-0.175487 -0.440372 0
-0.483785 -2.05629 0
0.655059 -1.35017 0
-0.203642 -0.367789 0
-0.535089 -1.13383 0
-0.0617295 -0.354971 0
-1.74754 -1.79265 0
0.108867 -1.07854 0
-0.343108 -0.739227 0
-0.290583 -0.925627 0
-0.0773576 -0.894954 0
-0.0231237 -0.886242 0
-0.323967 -0.265879 0
-0.734956 -1.37675 0
-0.565758 -0.957615 0
0.649275 -1.53915 0
-0.0678923 -1.47273 0
-0.144545 -1.04202 0
-1.95892 -4.06964 0
0.352584 -0.87016 0
-0.145526 -0.683198 0
-0.993095 -2.05014 0
-0.0665876 -0.373742 0
-0.149278 -1.24835 0
-0.563667 -0.554836 0
-0.0384674 -0.238956 0
0.257819 -1.35969 0
