# vtk DataFile Version 2.0
Unstructured Grid by M++
ASCII
DATASET UNSTRUCTURED_GRID
POINTS 81 float
  1.000000   0.625000 0
  0.750000   0.375000 0
  1.000000   0.000000 0
  0.875000   0.875000 0
  0.750000   0.125000 0
  1.000000   1.000000 0
  0.875000   0.250000 0
  0.625000   0.875000 0
  1.000000   0.750000 0
  0.875000   0.000000 0
  1.000000   0.250000 0
  0.625000   0.375000 0
  0.875000   0.500000 0
  0.625000   0.625000 0
  1.000000   0.500000 0
  0.750000   0.500000 0
  0.750000   1.000000 0
  1.000000   0.125000 0
  0.625000   0.250000 0
  0.750000   0.750000 0
  0.625000   0.000000 0
  0.125000   0.375000 0
  0.000000   0.500000 0
  0.125000   0.625000 0
  0.625000   1.000000 0
  1.000000   0.875000 0
  0.875000   0.125000 0
  0.500000   0.250000 0
  0.625000   0.500000 0
  0.250000   0.625000 0
  0.000000   0.625000 0
  0.375000   0.500000 0
  0.375000   0.000000 0
  0.000000   0.125000 0
  0.125000   0.875000 0
  0.875000   1.000000 0
  0.750000   0.250000 0
  0.375000   0.375000 0
  0.250000   0.375000 0
  0.625000   0.750000 0
  0.125000   0.125000 0
  0.500000   0.000000 0
  0.250000   0.875000 0
  0.125000   0.500000 0
  0.500000   0.375000 0
  0.125000   0.000000 0
  0.250000   0.750000 0
  0.250000   0.500000 0
  0.000000   0.875000 0
  0.875000   0.625000 0
  0.500000   0.750000 0
  0.750000   0.625000 0
  0.250000   0.000000 0
  0.375000   0.750000 0
  0.750000   0.875000 0
  0.625000   0.125000 0
  0.250000   0.250000 0
  0.375000   1.000000 0
  0.375000   0.250000 0
  0.000000   0.375000 0
  0.500000   1.000000 0
  0.875000   0.750000 0
  0.750000   0.000000 0
  0.375000   0.125000 0
  0.500000   0.875000 0
  0.000000   0.000000 0
  0.125000   0.750000 0
  0.500000   0.625000 0
  0.125000   0.250000 0
  0.500000   0.125000 0
  0.250000   1.000000 0
  0.250000   0.125000 0
  0.000000   1.000000 0
  0.375000   0.875000 0
  0.000000   0.750000 0
  0.375000   0.625000 0
  0.000000   0.250000 0
  0.125000   1.000000 0
  1.000000   0.375000 0
  0.500000   0.500000 0
  0.875000   0.375000 0
CELLS 64 320
4 56 71 58 63
4 27 58 69 63
4 41 69 32 63
4 76 33 68 40
4 27 44 58 37
4 79 31 44 37
4 56 38 68 21
4 56 58 38 37
4 52 32 71 63
4 47 38 31 37
4 76 68 59 21
4 22 59 43 21
4 65 45 33 40
4 47 43 38 21
4 52 71 45 40
4 56 68 71 40
4 74 30 66 23
4 46 66 29 23
4 22 43 30 23
4 72 48 77 34
4 46 53 42 73
4 50 64 53 73
4 70 42 57 73
4 74 66 48 34
4 46 42 66 34
4 47 29 43 23
4 70 77 42 34
4 60 57 64 73
4 79 67 31 75
4 47 31 29 75
4 50 53 67 75
4 46 29 53 75
4 10 78 6 80
4 36 6 1 80
4 15 1 12 80
4 36 4 6 26
4 14 12 78 80
4 2 17 9 26
4 36 18 4 55
4 15 28 1 11
4 62 4 20 55
4 10 6 17 26
4 27 18 44 11
4 62 9 4 26
4 27 69 18 55
4 36 1 18 11
4 41 20 69 55
4 79 44 28 11
4 16 24 54 7
4 19 54 39 7
4 50 39 64 7
4 8 25 61 3
4 60 64 24 7
4 79 28 67 13
4 19 51 61 49
4 8 61 0 49
4 15 51 28 13
4 19 39 51 13
4 50 67 39 13
4 19 61 54 3
4 14 0 12 49
4 5 35 25 3
4 15 12 51 49
4 16 54 35 3
CELL_TYPES 64
8
8
8
8
8
8
8
8
8
8
8
8
8
8
8
8
8
8
8
8
8
8
8
8
8
8
8
8
8
8
8
8
8
8
8
8
8
8
8
8
8
8
8
8
8
8
8
8
8
8
8
8
8
8
8
8
8
8
8
8
8
8
8
8
CELL_DATA 64
VECTORS vector_value float
0.86468 -1.52587 0
-0.018681 -0.0473674 0
0.0964196 -0.207937 0
0.124931 -0.246347 0
-0.00663453 -0.0316829 0
0.131026 -0.14133 0
0.874334 -1.18965 0
0.0636736 -0.166608 0
0.219425 -2.0182 0
0.016006 -0.0193649 0
0.438164 -1.00943 0
0.428069 -1.93496 0
0.0203954 -0.0972746 0
0.223098 -0.388211 0
0.0653829 -0.107383 0
0.877382 -0.612094 0
-0.0163503 -1.23543 0
-0.229722 -1.25001 0
-0.402229 -2.01359 0
-0.307183 -1.53404 0
-0.583805 -1.97481 0
-0.44645 -0.925368 0
-0.134924 -1.53444 0
0.168965 -1.50996 0
-0.148946 -0.659049 0
-0.104961 -0.320267 0
-0.196638 -0.245284 0
-0.714132 -1.10092 0
1.68954 -1.25918 0
0.381972 -0.363223 0
0.45815 -1.54762 0
0.495783 -1.24982 0
0.109928 -0.312916 0
2.72335 -5.08539 0
-0.0219411 -0.871389 0
0.362392 -3.43502 0
-0.065344 -0.251093 0
-0.049806 -2.2585 0
0.0147848 -0.0325993 0
3.21632 -3.29124 0
-0.00553844 -0.0344204 0
0.94371 -2.10044 0
0.00227509 -0.0663646 0
0.0125851 -3.27301 0
-1.34111e-05 -0.000264959 0
0.13997 -0.137963 0
-0.000747643 -0.00327338 0
1.79988 -1.10241 0
-0.0640128 -0.0974156 0
-0.0259494 -0.156867 0
-0.129234 -0.427806 0
0.0467592 -1.95051 0
-0.697836 -1.08888 0
1.10771 -1.30178 0
-0.109182 -0.203985 0
-0.560656 -1.87271 0
-0.132871 -1.09855 0
-0.0949131 -0.51393 0
-0.0145904 -0.126486 0
-0.131197 -0.39563 0
-0.266676 -0.515946 0
0.463033 -1.71503 0
-1.10788 -1.12745 0
0.668966 -0.683981 0
