# vtk DataFile Version 2.0
Unstructured Grid by M++
ASCII
DATASET UNSTRUCTURED_GRID
POINTS 81 float
  1.000000   0.625000 0
  0.750000   0.375000 0
  1.000000   0.000000 0
  0.875000   0.875000 0
  0.750000   0.125000 0
  1.000000   1.000000 0
  0.875000   0.250000 0
  0.625000   0.875000 0
  1.000000   0.750000 0
  0.875000   0.000000 0
  1.000000   0.250000 0
  0.625000   0.375000 0
  0.875000   0.500000 0
  0.625000   0.625000 0
  1.000000   0.500000 0
  0.750000   0.500000 0
  0.750000   1.000000 0
  1.000000   0.125000 0
  0.625000   0.250000 0
  0.750000   0.750000 0
  0.625000   0.000000 0
  0.125000   0.375000 0
  0.000000   0.500000 0
  0.125000   0.625000 0
  0.625000   1.000000 0
  1.000000   0.875000 0
  0.875000   0.125000 0
  0.500000   0.250000 0
  0.625000   0.500000 0
  0.250000   0.625000 0
  0.000000   0.625000 0
  0.375000   0.500000 0
  0.375000   0.000000 0
  0.000000   0.125000 0
  0.125000   0.875000 0
  0.875000   1.000000 0
  0.750000   0.250000 0
  0.375000   0.375000 0
  0.250000   0.375000 0
  0.625000   0.750000 0
  0.125000   0.125000 0
  0.500000   0.000000 0
  0.250000   0.875000 0
  0.125000   0.500000 0
  0.500000   0.375000 0
  0.125000   0.000000 0
  0.250000   0.750000 0
  0.250000   0.500000 0
  0.000000   0.875000 0
  0.875000   0.625000 0
  0.500000   0.750000 0
  0.750000   0.625000 0
  0.250000   0.000000 0
  0.375000   0.750000 0
  0.750000   0.875000 0
  0.625000   0.125000 0
  0.250000   0.250000 0
  0.375000   1.000000 0
  0.375000   0.250000 0
  0.000000   0.375000 0
  0.500000   1.000000 0
  0.875000   0.750000 0
  0.750000   0.000000 0
  0.375000   0.125000 0
  0.500000   0.875000 0
  0.000000   0.000000 0
  0.125000   0.750000 0
  0.500000   0.625000 0
  0.125000   0.250000 0
  0.500000   0.125000 0
  0.250000   1.000000 0
  0.250000   0.125000 0
  0.000000   1.000000 0
  0.375000   0.875000 0
  0.000000   0.750000 0
  0.375000   0.625000 0
  0.000000   0.250000 0
  0.125000   1.000000 0
  1.000000   0.375000 0
  0.500000   0.500000 0
  0.875000   0.375000 0
CELLS 64 320
4 56 71 58 63
4 27 58 69 63
4 41 69 32 63
4 76 33 68 40
4 27 44 58 37
4 79 31 44 37
4 56 38 68 21
4 56 58 38 37
4 52 32 71 63
4 47 38 31 37
4 76 68 59 21
4 22 59 43 21
4 65 45 33 40
4 47 43 38 21
4 52 71 45 40
4 56 68 71 40
4 74 30 66 23
4 46 66 29 23
4 22 43 30 23
4 72 48 77 34
4 46 53 42 73
4 50 64 53 73
4 70 42 57 73
4 74 66 48 34
4 46 42 66 34
4 47 29 43 23
4 70 77 42 34
4 60 57 64 73
4 79 67 31 75
4 47 31 29 75
4 50 53 67 75
4 46 29 53 75
4 10 78 6 80
4 36 6 1 80
4 15 1 12 80
4 36 4 6 26
4 14 12 78 80
4 2 17 9 26
4 36 18 4 55
4 15 28 1 11
4 62 4 20 55
4 10 6 17 26
4 27 18 44 11
4 62 9 4 26
4 27 69 18 55
4 36 1 18 11
4 41 20 69 55
4 79 44 28 11
4 16 24 54 7
4 19 54 39 7
4 50 39 64 7
4 8 25 61 3
4 60 64 24 7
4 79 28 67 13
4 19 51 61 49
4 8 61 0 49
4 15 51 28 13
4 19 39 51 13
4 50 67 39 13
4 19 61 54 3
4 14 0 12 49
4 5 35 25 3
4 15 12 51 49
4 16 54 35 3
CELL_TYPES 64
8
8
8
8
8
8
8
8
8
8
8
8
8
8
8
8
8
8
8
8
8
8
8
8
8
8
8
8
8
8
8
8
8
8
8
8
8
8
8
8
8
8
8
8
8
8
8
8
8
8
8
8
8
8
8
8
8
8
8
8
8
8
8
8
CELL_DATA 64
VECTORS vector_value float
-0.573164 -3.70248 0
-0.102168 -0.245093 0
-0.000260433 -0.131903 0
-0.00852561 -0.0680661 0
-0.384397 -0.860842 0
0.134068 -1.1959 0
0.373883 -0.662124 0
-0.0575061 -2.77601 0
-0.151174 -2.66239 0
0.423018 -1.90451 0
0.0239244 -0.0632191 0
0.0904723 -0.273221 0
-0.0275794 -0.121231 0
0.140467 -0.907339 0
-0.616374 -1.3722 0
-0.0295184 -0.310806 0
-0.0520614 -0.283879 0
-0.258423 -1.60063 0
-0.00826813 -0.226661 0
0.432088 -0.440539 0
-0.217967 -1.59253 0
0.357418 -1.30379 0
0.302648 -1.9858 0
-0.0152623 -0.138195 0
-0.14307 -1.2862 0
0.385103 -1.98736 0
0.737873 -1.16134 0
-0.497824 -0.863259 0
0.00519609 -0.609233 0
0.332123 -1.39514 0
-0.233852 -0.770511 0
-0.407801 -1.42165 0
0.0429284 -3.41395 0
0.0775523 -0.150068 0
0.23908 -0.247891 0
-0.0271409 -0.108764 0
0.169152 -3.26565 0
-0.0237384 -3.15599 0
0.0254453 -0.0572975 0
0.047788 -0.0327045 0
0.0140948 -0.103755 0
-0.125213 -3.47712 0
0.00927038 -0.0317052 0
-0.148583 -0.424733 0
0.0507141 -0.0303715 0
0.0441227 -0.0420757 0
0.0203524 -0.0277939 0
-0.0399923 -0.172786 0
0.593103 -1.023 0
0.215743 -0.537015 0
0.128717 -0.204213 0
0.50552 -2.29215 0
0.0121669 -0.0850428 0
-0.0206121 -0.212902 0
0.349337 -0.644217 0
0.217535 -2.5908 0
0.0598878 -0.223331 0
0.134766 -0.27353 0
0.0411525 -0.414785 0
0.602694 -0.645902 0
0.0382769 -3.00617 0
0.24958 -1.34465 0
0.0446874 -0.339214 0
0.705967 -1.09636 0
