# vtk DataFile Version 2.0
Unstructured Grid by M++
ASCII
DATASET UNSTRUCTURED_GRID
POINTS 16641 float
  0.703125   0.781250 0
  0.632812   0.828125 0
  0.640625   0.835938 0
  0.640625   0.804688 0
  0.648438   0.812500 0
  0.625000   0.820312 0
  0.789062   0.929688 0
  0.796875   0.937500 0
  0.664062   0.945312 0
  0.664062   0.953125 0
  0.664062   0.968750 0
  0.671875   0.960938 0
  0.679688   0.960938 0
  0.679688   0.968750 0
  0.671875   0.953125 0
  0.914062   0.945312 0
  0.914062   0.968750 0
  0.914062   0.960938 0
  0.921875   0.968750 0
  0.929688   0.960938 0
  0.921875   0.945312 0
  0.921875   0.953125 0
  0.929688   0.953125 0
  0.820312   0.898438 0
  0.750000   0.945312 0
  0.570312   0.898438 0
  0.578125   0.898438 0
  0.585938   0.898438 0
  0.523438   0.953125 0
  0.585938   0.890625 0
  0.585938   0.882812 0
  0.515625   0.945312 0
  0.523438   0.945312 0
  0.515625   0.937500 0
  0.570312   0.890625 0
  0.578125   0.890625 0
  0.578125   0.882812 0
  0.570312   0.882812 0
  0.507812   0.937500 0
  0.507812   0.929688 0
  0.976562   0.882812 0
  0.992188   0.898438 0
  0.984375   0.890625 0
  0.968750   0.820312 0
  0.976562   0.828125 0
  0.992188   0.812500 0
  1.000000   0.820312 0
  0.656250   0.960938 0
  0.648438   0.953125 0
  0.640625   0.945312 0
  0.882812   0.968750 0
  0.882812   0.960938 0
  0.890625   0.968750 0
  0.906250   0.960938 0
  0.898438   0.953125 0
  0.906250   0.953125 0
  0.898438   0.945312 0
  0.906250   0.945312 0
  0.882812   0.953125 0
  0.890625   0.953125 0
  0.890625   0.945312 0
  0.882812   0.945312 0
  0.539062   0.695312 0
  0.539062   0.718750 0
  0.531250   0.710938 0
  0.554688   0.710938 0
  0.546875   0.703125 0
  0.570312   0.585938 0
  0.578125   0.585938 0
  0.585938   0.578125 0
  0.585938   0.570312 0
  0.570312   0.578125 0
  0.578125   0.570312 0
  0.757812   0.835938 0
  0.929688   0.968750 0
  0.960938   0.929688 0
  0.960938   0.921875 0
  0.953125   0.914062 0
  0.953125   0.921875 0
  0.601562   0.679688 0
  0.835938   0.976562 0
  0.898438   0.718750 0
  0.835938   0.968750 0
  0.593750   0.906250 0
  0.664062   0.914062 0
  0.601562   0.914062 0
  0.609375   0.921875 0
  0.679688   0.929688 0
  0.679688   0.937500 0
  0.796875   0.968750 0
  0.726562   0.945312 0
  0.742188   0.945312 0
  0.726562   0.890625 0
  0.734375   0.898438 0
  0.742188   0.960938 0
  0.734375   0.960938 0
  0.734375   0.953125 0
  0.726562   0.953125 0
  0.523438   0.820312 0
  0.523438   0.828125 0
  0.640625   0.953125 0
  0.984375   0.664062 0
  0.632812   0.953125 0
  0.921875   0.914062 0
  0.914062   0.906250 0
  0.671875   0.929688 0
  0.671875   0.921875 0
  0.664062   0.921875 0
  0.554688   0.945312 0
  0.914062   0.937500 0
  0.718750   0.882812 0
  0.507812   0.867188 0
  0.570312   0.617188 0
  0.742188   0.968750 0
  0.726562   0.976562 0
  0.726562   0.984375 0
  0.562500   0.898438 0
  0.734375   0.984375 0
  0.734375   0.992188 0
  0.742188   0.992188 0
  0.742188   1.000000 0
  0.742188   0.937500 0
  0.734375   0.937500 0
  0.734375   0.929688 0
  0.726562   0.921875 0
  0.726562   0.929688 0
  0.679688   0.843750 0
  0.921875   0.960938 0
  0.914062   0.953125 0
  0.687500   0.851562 0
  0.562500   0.984375 0
  0.554688   0.984375 0
  0.632812   0.937500 0
  0.625000   0.929688 0
  0.554688   0.921875 0
  0.585938   0.984375 0
  0.648438   0.929688 0
  0.656250   0.937500 0
  0.578125   0.914062 0
  0.585938   0.921875 0
  0.578125   0.921875 0
  0.906250   0.929688 0
  0.898438   0.929688 0
  0.898438   0.937500 0
  0.906250   0.937500 0
  0.554688   0.679688 0
  0.554688   0.687500 0
  0.554688   0.976562 0
  0.570312   0.914062 0
  0.570312   0.906250 0
  0.562500   0.906250 0
  0.531250   0.664062 0
  0.539062   0.664062 0
  0.804688   0.976562 0
  0.890625   0.937500 0
  0.890625   0.929688 0
  0.882812   0.921875 0
  0.875000   0.921875 0
  0.882812   0.937500 0
  0.882812   0.929688 0
  0.875000   0.929688 0
  0.546875   0.679688 0
  0.539062   0.671875 0
  0.531250   0.687500 0
  0.539062   0.617188 0
  0.546875   0.671875 0
  0.554688   0.601562 0
  0.742188   0.906250 0
  0.570312   0.968750 0
  0.578125   0.976562 0
  0.585938   0.976562 0
  0.578125   0.968750 0
  0.640625   0.921875 0
  0.828125   0.968750 0
  0.539062   0.929688 0
  0.890625   0.921875 0
  0.898438   0.921875 0
  0.906250   0.921875 0
  0.945312   1.000000 0
  0.945312   0.992188 0
  0.937500   0.992188 0
  0.953125   0.992188 0
  0.953125   1.000000 0
  0.960938   0.992188 0
  0.960938   1.000000 0
  0.710938   0.992188 0
  0.710938   1.000000 0
  0.718750   1.000000 0
  0.960938   0.984375 0
  0.960938   0.976562 0
  0.539062   0.703125 0
  0.718750   0.976562 0
  0.539062   0.875000 0
  0.695312   0.859375 0
  0.703125   0.867188 0
  0.937500   0.984375 0
  0.945312   0.984375 0
  0.953125   0.984375 0
  0.953125   0.976562 0
  0.937500   0.976562 0
  0.945312   0.976562 0
  0.687500   0.976562 0
  0.695312   0.976562 0
  0.882812   0.562500 0
  0.703125   1.000000 0
  0.703125   0.992188 0
  0.703125   0.984375 0
  0.695312   0.984375 0
  0.523438   0.835938 0
  0.867188   0.546875 0
  0.687500   0.984375 0
  0.695312   1.000000 0
  0.687500   0.992188 0
  0.687500   1.000000 0
  0.585938   0.648438 0
  0.523438   0.898438 0
  0.554688   0.898438 0
  0.835938   0.914062 0
  0.539062   0.882812 0
  0.882812   0.593750 0
  0.750000   0.921875 0
  0.820312   0.937500 0
  0.820312   0.929688 0
  0.914062   0.921875 0
  0.750000   0.773438 0
  0.914062   0.929688 0
  0.632812   0.960938 0
  0.843750   0.976562 0
  0.812500   0.523438 0
  0.843750   0.984375 0
  0.523438   0.632812 0
  0.703125   0.812500 0
  0.648438   0.960938 0
  0.992188   0.671875 0
  0.640625   0.960938 0
  0.929688   0.921875 0
  0.921875   0.921875 0
  0.757812   0.781250 0
  0.921875   0.929688 0
  0.921875   0.937500 0
  0.937500   0.929688 0
  0.929688   0.929688 0
  0.765625   0.757812 0
  0.695312   0.804688 0
  0.812500   0.953125 0
  0.648438   0.898438 0
  0.656250   0.906250 0
  0.820312   1.000000 0
  0.820312   0.992188 0
  0.820312   0.960938 0
  0.906250   0.898438 0
  0.554688   0.648438 0
  0.554688   0.656250 0
  0.578125   0.945312 0
  0.882812   0.734375 0
  0.820312   0.984375 0
  0.960938   0.640625 0
  0.828125   0.937500 0
  0.898438   0.890625 0
  0.554688   0.640625 0
  0.554688   0.632812 0
  0.570312   0.937500 0
  0.562500   0.929688 0
  0.632812   0.882812 0
  0.867188   0.718750 0
  0.875000   0.726562 0
  0.804688   0.968750 0
  0.812500   0.976562 0
  0.562500   0.875000 0
  0.804688   0.945312 0
  0.812500   0.945312 0
  0.953125   0.632812 0
  0.945312   0.625000 0
  0.890625   0.882812 0
  0.882812   0.875000 0
  0.546875   0.632812 0
  0.531250   0.632812 0
  0.539062   0.632812 0
  0.539062   0.625000 0
  0.546875   0.656250 0
  0.546875   0.648438 0
  0.546875   0.640625 0
  0.539062   0.640625 0
  0.531250   0.640625 0
  0.539062   0.656250 0
  0.539062   0.648438 0
  0.531250   0.648438 0
  0.531250   0.656250 0
  0.843750   0.921875 0
  0.835938   0.921875 0
  0.843750   0.929688 0
  0.609375   0.890625 0
  0.851562   0.992188 0
  0.726562   0.835938 0
  0.585938   0.656250 0
  0.585938   0.664062 0
  0.523438   0.906250 0
  0.796875   0.960938 0
  0.789062   0.960938 0
  0.609375   0.648438 0
  0.601562   0.640625 0
  0.601562   0.648438 0
  0.593750   0.648438 0
  0.546875   0.898438 0
  0.539062   0.890625 0
  0.750000   0.914062 0
  0.539062   0.898438 0
  0.531250   0.898438 0
  0.828125   0.976562 0
  0.664062   0.828125 0
  0.726562   0.578125 0
  0.601562   0.882812 0
  0.593750   0.875000 0
  0.734375   0.585938 0
  0.890625   0.742188 0
  0.742188   0.593750 0
  0.671875   0.835938 0
  0.835938   0.984375 0
  0.828125   0.984375 0
  0.828125   0.992188 0
  0.828125   1.000000 0
  0.843750   0.992188 0
  0.835938   0.992188 0
  0.835938   1.000000 0
  0.843750   1.000000 0
  0.570312   0.742188 0
  0.562500   0.742188 0
  0.507812   1.000000 0
  0.546875   0.664062 0
  0.898438   0.804688 0
  0.554688   0.671875 0
  0.890625   0.960938 0
  0.554688   0.664062 0
  0.757812   0.960938 0
  0.507812   0.960938 0
  0.578125   0.648438 0
  0.570312   0.648438 0
  0.562500   0.648438 0
  0.515625   0.898438 0
  0.507812   0.898438 0
  0.523438   0.765625 0
  0.585938   0.515625 0
  0.875000   0.960938 0
  0.898438   0.960938 0
  0.734375   0.812500 0
  0.898438   0.968750 0
  0.750000   0.828125 0
  0.906250   0.968750 0
  0.742188   0.820312 0
  0.507812   0.992188 0
  0.851562   0.703125 0
  0.789062   0.953125 0
  0.867188   0.773438 0
  0.710938   0.593750 0
  0.812500   0.984375 0
  0.812500   0.992188 0
  0.804688   1.000000 0
  0.570312   0.960938 0
  0.562500   0.960938 0
  0.562500   0.953125 0
  0.554688   0.953125 0
  0.640625   0.890625 0
  0.617188   0.742188 0
  0.796875   1.000000 0
  0.796875   0.992188 0
  0.789062   0.992188 0
  0.609375   0.742188 0
  0.687500   0.570312 0
  0.789062   0.984375 0
  0.601562   0.734375 0
  0.593750   0.726562 0
  0.601562   0.726562 0
  0.539062   0.976562 0
  0.867188   0.804688 0
  0.750000   0.953125 0
  0.757812   0.953125 0
  0.570312   0.703125 0
  0.562500   0.695312 0
  0.570312   0.695312 0
  0.687500   0.945312 0
  0.695312   0.945312 0
  0.773438   0.945312 0
  0.781250   0.945312 0
  0.695312   0.921875 0
  0.703125   0.921875 0
  0.585938   0.640625 0
  0.593750   0.640625 0
  0.585938   0.632812 0
  0.593750   0.632812 0
  0.523438   0.890625 0
  0.531250   0.890625 0
  0.523438   0.882812 0
  0.531250   0.882812 0
  0.781250   0.953125 0
  0.765625   0.960938 0
  0.578125   0.703125 0
  0.578125   0.710938 0
  0.585938   0.710938 0
  0.585938   0.718750 0
  0.851562   0.789062 0
  0.710938   0.960938 0
  0.710938   0.968750 0
  0.718750   0.968750 0
  0.562500   0.734375 0
  0.570312   0.734375 0
  0.570312   0.726562 0
  0.562500   0.718750 0
  0.843750   0.695312 0
  0.507812   0.984375 0
  0.578125   0.734375 0
  0.578125   0.742188 0
  0.585938   0.742188 0
[...]
CELL_DATA 16384
VECTORS vector_value float
0.404702 -0.482606 0
0.529168 -0.537179 0
0.438666 -0.423354 0
0.385569 -0.404162 0
0.549084 -0.634675 0
0.579778 -0.588448 0
0.464862 -0.63403 0
0.463531 -0.799745 0
0.62542 -0.476511 0
0.628142 -0.555092 0
0.630601 -0.585427 0
0.639991 -0.497843 0
0.319006 -0.458504 0
0.341442 -0.389703 0
0.252485 -0.386541 0
0.183908 -0.387345 0
0.439219 -0.390242 0
0.389921 -0.400557 0
0.358496 -0.501627 0
0.501596 -0.499331 0
0.356989 -0.35206 0
0.410478 -0.409996 0
0.393848 -0.352295 0
0.368615 -0.340924 0
0.259645 -0.33426 0
0.364119 -0.377754 0
0.385725 -0.394032 0
0.295966 -0.394893 0
0.037828 -0.278032 0
0.040234 -0.186696 0
0.0749818 -0.186691 0
0.106023 -0.29351 0
-0.0585761 -0.253777 0
0.00226158 -0.192968 0
-0.0253373 -0.284994 0
-0.128801 -0.335007 0
0.0254111 -0.12616 0
0.0254956 -0.182597 0
-0.0185864 -0.186755 0
-0.00666477 -0.121746 0
0.0626915 -0.140894 0
0.0543184 -0.157828 0
0.0557814 -0.138639 0
0.0623277 -0.156767 0
0.29934 -0.421276 0
0.334479 -0.608862 0
0.235436 -0.607132 0
0.205385 -0.37682 0
0.492232 -0.687747 0
0.530504 -0.612674 0
0.169962 -1.24003 0
0.373477 -0.931062 0
0.359677 -0.817313 0
0.146377 -0.951978 0
0.242188 -1.22067 0
0.316391 -1.14031 0
0.103862 -1.50142 0
0.116279 -1.73826 0
0.0712493 -0.346662 0
0.0566785 -0.370137 0
0.0752682 -0.369076 0
0.0711495 -0.338554 0
0.0348099 -0.323605 0
0.036889 -0.329806 0
0.0651321 -0.331133 0
0.0337522 -0.299015 0
-0.0465929 -0.547339 0
0.0121607 -0.452391 0
0.00461557 -0.397104 0
-0.0665849 -0.454623 0
0.0671807 -0.506186 0
0.0316906 -0.447524 0
0.004952 -0.613487 0
0.0685633 -0.611871 0
0.324536 -0.299291 0
0.268042 -0.276065 0
0.218606 -0.250762 0
0.290427 -0.31063 0
0.353789 -0.380782 0
0.287921 -0.29712 0
0.386712 -0.360373 0
0.421018 -0.407253 0
0.148879 -0.233208 0
0.26063 -0.286115 0
0.263025 -0.324535 0
0.188995 -0.315654 0
0.139357 -0.193654 0
0.205446 -0.224741 0
0.101865 -0.163279 0
0.0794526 -0.166543 0
0.0649363 -1.34153 0
-0.017679 -1.23448 0
-0.0969126 -1.47247 0
0.867054 -0.319266 0
0.892921 -0.333259 0
0.805631 -0.34587 0
0.834105 -0.302235 0
0.442593 -1.57731 0
0.132848 -1.54302 0
0.346978 -1.60879 0
0.642911 -0.288485 0
0.880732 -0.346582 0
0.851367 -0.33582 0
0.705975 -0.349697 0
0.497764 -1.24407 0
0.359847 -1.37906 0
0.742125 -1.53344 0
0.696718 -0.221536 0
0.790052 -0.276967 0
0.613542 -0.217381 0
0.627632 -0.223979 0
0.224379 -1.2063 0
0.731356 -0.365247 0
0.916211 -0.350997 0
0.843411 -0.284803 0
0.731807 -0.33954 0
0.031387 -0.282998 0
0.101754 -0.265922 0
0.070014 -0.223989 0
0.0638537 -0.270772 0
0.0566255 -0.278059 0
0.0296791 -0.306085 0
0.154796 -0.331156 0
0.095559 -0.299384 0
0.0729773 -0.255317 0
0.104303 -0.305577 0
0.120387 -0.321792 0
0.188206 -0.334815 0
0.218102 -0.329292 0
-1.36853 -2.03821 0
-1.38684 -1.86234 0
-1.22166 -1.94044 0
-1.176 -1.99331 0
-1.51719 -1.92512 0
-1.51409 -1.86805 0
-1.62162 -2.12298 0
-1.39269 -1.95848 0
-1.42329 -2.03375 0
-1.43334 -1.84137 0
-1.51129 -1.9044 0
-1.22668 -1.93592 0
-1.47788 -1.93822 0
-1.44008 -1.93004 0
-1.16836 -1.91397 0
-1.12819 -1.85452 0
-0.926929 -1.36269 0
-0.623933 -1.18217 0
-0.989489 -1.80534 0
-1.0684 -1.63998 0
-1.08408 -1.77076 0
-1.05591 -1.71729 0
-0.548039 -0.938378 0
-0.850962 -1.48431 0
-0.818812 -1.61919 0
-0.65904 -1.26457 0
-0.391908 -0.842249 0
-0.658124 -1.18728 0
-0.372041 -0.693196 0
0.763977 -0.962876 0
-0.114982 -0.943951 0
-0.076098 -0.952007 0
-0.144397 -0.968783 0
0.595774 -0.73743 0
0.779048 -0.749312 0
0.811731 -0.980348 0
-0.152102 -1.03512 0
-0.162582 -1.16503 0
-0.132351 -1.1005 0
0.429091 -0.483799 0
-0.0666493 -1.11877 0
-0.105356 -1.02335 0
-0.135028 -1.11395 0
0.683013 -0.790837 0
0.627034 -0.649967 0
0.639854 -0.71363 0
-0.0687663 -1.02501 0
0.0376794 -0.0761338 0
0.0358278 -0.11051 0
0.0281317 -0.112258 0
0.0325246 -0.0792713 0
0.0475828 -0.102417 0
0.040613 -0.106214 0
0.0413033 -0.0759481 0
0.0430904 -0.0804326 0
0.0122543 -0.187468 0
0.0324112 -0.154578 0
0.0308863 -0.134118 0
0.00838301 -0.166446 0
0.0221519 -0.175516 0
0.0290049 -0.161268 0
0.0126911 -0.216317 0
0.00850598 -0.23361 0
0.139238 -0.999555 0
0.161666 -1.16682 0
-0.0111244 -0.169205 0
-0.00170903 -0.124263 0
-0.031328 -0.0960675 0
-0.0571862 -0.12792 0
0.034261 -1.04165 0
0.00141203 -0.983494 0
-0.0846041 -0.82805 0
0.0924028 -0.201158 0
0.0361465 -0.168869 0
0.0434747 -0.220411 0
0.120915 -0.287632 0
0.131948 -1.1208 0
0.0298406 -0.108667 0
0.0305076 -0.13369 0
0.0610348 -0.139459 0
0.346978 -1.26808 0
0.266033 -1.10836 0
0.485697 -1.18889 0
0.00371786 -2.11352 0
0.0112889 -1.94727 0
0.0472941 -2.03824 0
-0.016934 -0.0750265 0
0.00559561 -0.0951809 0
0.00571873 -0.0734168 0
-0.00781233 -0.0557741 0
0.429934 -1.43309 0
0.457093 -1.48677 0
0.476814 -1.44453 0
0.0139114 -0.0252894 0
0.0108394 -0.0250467 0
0.453226 -1.68523 0
0.028348 -0.0703181 0
0.0196381 -0.041994 0
0.0254014 -0.0773409 0
0.520582 -1.93045 0
0.365818 -1.72102 0
0.386595 -1.80078 0
0.0197904 -0.0364018 0
0.0326759 -0.0525317 0
0.61014 -1.53403 0
0.0177653 -0.0251847 0
0.0178937 -0.0258795 0
0.026213 -0.0250957 0
0.029616 -0.0300504 0
0.671306 -2.14239 0
0.589752 -2.00468 0
0.589706 -2.18311 0
0.429732 -1.80447 0
0.441929 -1.85798 0
0.325377 -1.5782 0
0.271236 -1.49072 0
0.241149 -1.32844 0
0.562724 -1.51085 0
0.907943 -2.50731 0
0.929478 -2.10443 0
0.831907 -2.40633 0
0.798686 -1.97988 0
0.93317 -2.53334 0
0.727345 -1.59907 0
0.53548 -1.51097 0
0.426185 -1.55738 0
0.756389 -2.14446 0
0.644572 -1.86934 0
0.616707 -1.72752 0
0.080404 -0.617822 0
0.0281206 -0.565516 0
0.0598493 -0.976438 0
0.174545 -0.488825 0
0.194997 -0.802184 0
0.242062 -0.695891 0
0.0632382 -0.279079 0
0.0903597 -0.371781 0
0.0697753 -0.250062 0
0.0560296 -0.39418 0
0.115975 -0.871324 0
0.158955 -0.675724 0
0.0360475 -0.940131 0
0.0182923 -0.976839 0
0.361975 -0.327674 0
0.299261 -0.505874 0
0.230767 -0.581864 0
0.308161 -0.389173 0
0.270098 -0.30323 0
0.314719 -0.399835 0
0.382258 -0.287168 0
0.345678 -0.257041 0
0.0778645 -0.826425 0
0.206244 -0.536999 0
0.193706 -0.448846 0
0.0758807 -0.664038 0
0.694448 -0.312222 0
0.660601 -0.31855 0
0.669646 -0.366774 0
0.963612 -0.435458 0
-1.1736 -2.40852 0
-1.11935 -2.10629 0
0.000292348 -0.897763 0
-1.24965 -1.93582 0
-0.204776 -1.11163 0
-1.00727 -1.03917 0
-0.184808 -0.973426 0
-1.06594 -1.06303 0
-1.20612 -1.93235 0
0.0121956 -0.944572 0
-0.985353 -1.8135 0
0.0270517 -0.944576 0
-1.02383 -1.76567 0
-0.0317239 -1.06892 0
0.979438 -1.00706 0
-0.0599149 -1.00456 0
0.168993 -1.52616 0
0.357727 -1.84959 0
0.756723 -0.532666 0
0.134566 -1.01053 0
0.176702 -0.699481 0
-0.234712 -0.250156 0
0.375656 -0.753444 0
-0.148151 -0.147926 0
0.307183 -0.555887 0
-1.45698 -2.17204 0
0.00237574 -0.0157941 0
0.154327 -0.506523 0
-0.15502 -0.165813 0
0.24515 -1.05362 0
-0.502495 -0.433095 0
0.408399 -0.789261 0
-0.268208 -0.237107 0
0.214599 -0.977542 0
-0.330425 -0.474906 0
0.155959 -0.106006 0
-0.112684 -1.31613 0
-0.533283 -0.862791 0
0.186468 -0.123742 0
0.249552 -0.165922 0
0.375161 -0.281641 0
0.121766 -0.12265 0
-0.0930672 -1.11306 0
-0.399817 -1.14105 0
0.0765112 -0.0669675 0
0.0979807 -0.301924 0
0.0960216 -0.0954319 0
0.141126 -0.294567 0
0.138179 -0.218654 0
-0.167564 -1.48777 0
-0.354109 -0.805408 0
0.102438 -0.0947387 0
0.19833 -0.248578 0
0.0870068 -0.111698 0
0.104131 -0.125445 0
0.107889 -0.107739 0
0.107905 -0.0805235 0
0.0688515 -0.114945 0
0.08588 -0.0627719 0
-0.103935 -1.13866 0
-0.10619 -0.845553 0
0.0585013 -0.0997229 0
0.140713 -0.322809 0
0.77667 -0.398519 0
0.0927636 -0.23227 0
0.772047 -0.440122 0
-0.0153738 -0.80442 0
0.109391 -0.692276 0
0.51051 -0.635336 0
0.710235 -1.27919 0
0.966888 -1.49743 0
-0.0497284 -0.404227 0
0.0522646 -0.153845 0
0.866979 -0.561026 0
-0.0192254 -0.566685 0
0.0496233 -0.17769 0
0.784136 -0.453456 0
0.0431498 -0.149808 0
0.0263526 -0.108348 0
0.63605 -0.480869 0
0.369487 -0.212066 0
0.348414 -1.02087 0
0.400782 -0.335557 0
0.447313 -0.295078 0
0.293445 -1.58394 0
0.757885 -0.39802 0
0.0701637 -0.209166 0
0.3143 -1.74122 0
0.0771649 -0.188968 0
-0.0656134 -0.306079 0
-0.022757 -0.313742 0
0.118682 -0.19993 0
-0.0626285 -0.661403 0
0.114848 -0.626573 0
0.422033 -0.590781 0
0.547804 -1.25095 0
0.074401 -0.120001 0
0.474401 -1.07821 0
0.110085 -0.172357 0
0.396829 -1.20351 0
0.0794397 -0.163759 0
0.316033 -0.316823 0
0.323425 -0.222342 0
0.529095 -2.11342 0
0.0841052 -1.29282 0
0.31364 -0.225463 0
0.0617833 -0.0678773 0
0.739729 -1.51659 0
0.761589 -0.909018 0
0.193207 -0.15031 0
0.95203 -1.18925 0
0.109016 -0.0796409 0
0.0155346 -0.589627 0
-0.0297249 -0.600633 0
0.0768136 -0.575298 0
-0.0465821 -0.557948 0
0.354898 -0.318327 0
0.00754295 -0.0481946 0
0.280572 -0.273543 0
0.337761 -0.321257 0
0.0122383 -0.0367674 0
0.422934 -0.42329 0
0.268345 -1.05047 0
0.493885 -0.612678 0
0.512332 -0.764353 0
0.323838 -0.443845 0
0.0411011 -0.277809 0
0.313385 -0.26043 0
0.00709918 -0.0267703 0
0.256118 -0.242974 0
0.277234 -0.262949 0
0.0101987 -0.0278179 0
0.269115 -0.231519 0
0.312624 -0.252191 0
0.0150581 -0.0456452 0
0.322396 -0.253831 0
0.301639 -0.228303 0
0.000656413 -0.0305857 0
1.14366 -1.02373 0
0.521058 -0.37475 0
0.361027 -1.10892 0
0.714061 -0.697007 0
0.882463 -0.717515 0
0.231628 -0.544851 0
0.231616 -0.131575 0
0.123035 -0.0721266 0
0.104831 -0.304012 0
0.13114 -0.472258 0
-0.0772492 -0.503683 0
0.0734755 -0.288024 0
0.0666531 -0.874117 0
0.126929 -0.705328 0
-0.182721 -0.462607 0
0.287012 -0.689341 0
-0.172103 -0.329013 0
0.392378 -0.738592 0
0.458674 -0.829594 0
-0.21307 -0.237947 0
0.0415885 -1.30382 0
0.296435 -0.994147 0
0.235456 -1.09766 0
0.160425 -0.181879 0
0.116697 -0.110229 0
0.406541 -0.634149 0
0.176124 -0.143592 0
0.370962 -0.738637 0
0.228656 -0.2428 0
0.413623 -0.920626 0
0.121452 -0.747562 0
1.13309 -0.850802 0
0.0416993 -0.549092 0
0.909251 -0.707552 0
-0.0177182 -0.81152 0
-0.0118947 -0.0600817 0
0.139428 -0.309927 0
-0.0141305 -0.667209 0
-0.0247781 -0.0808304 0
0.139696 -0.0794278 0
0.10661 -0.0642139 0
0.34974 -0.485112 0
0.066049 -0.0292688 0
0.153852 -0.233728 0
0.0692864 -0.0472398 0
0.209589 -0.35298 0
0.0509198 -0.0441949 0
-0.055957 -0.0755673 0
0.432684 -0.26562 0
0.0221476 -1.02126 0
0.700666 -2.84341 0
0.127018 -0.0775087 0
0.731709 -2.55243 0
0.302623 -0.179634 0
0.594285 -2.81345 0
0.0781943 -0.0516046 0
0.0288732 -0.0340876 0
0.878798 -2.4167 0
0.837921 -2.50702 0
0.918801 -2.09043 0
0.139198 -0.0952208 0
-0.0169092 -0.063536 0
0.221994 -0.300201 0
0.654897 -2.83877 0
0.0513078 -0.0635137 0
0.229861 -0.915374 0
0.0373756 -0.0566075 0
0.167793 -0.790563 0
-0.145725 -1.04988 0
0.0283538 -0.0584612 0
0.207087 -0.173552 0
0.151696 -0.126162 0
0.041669 -0.0271268 0
0.136169 -0.129244 0
0.0465604 -0.0320816 0
0.101368 -0.0471817 0
0.0932093 -0.0684531 0
0.110722 -0.0725031 0
0.0975752 -0.292647 0
0.306219 -0.298129 0
0.101744 -0.0423157 0
0.123331 -0.13464 0
0.095479 -0.0295058 0
0.110173 -0.128281 0
0.0752047 -0.03882 0
0.11478 -0.130209 0
0.10352 -0.0365407 0
0.00687815 -0.022089 0
0.337356 -0.395233 0
-0.0235296 -0.0380056 0
0.511809 -0.503102 0
-0.0269676 -0.041417 0
0.122318 -0.11134 0
0.0422223 -0.0517762 0
0.0980542 -0.105789 0
0.0386665 -0.0452505 0
0.106656 -0.11373 0
0.0386304 -0.0463489 0
0.429804 -0.337801 0
-0.00246837 -0.0328075 0
0.499573 -0.392883 0
0.00247446 -0.0419781 0
0.0115766 -0.0318411 0
0.00563297 -0.104521 0
0.0497171 -0.125608 0
0.111226 -0.0494212 0
-0.0318087 -1.97824 0
0.408488 -1.33381 0
0.146707 -1.03381 0
0.277337 -1.90325 0
0.0579331 -0.194621 0
0.00306821 -0.0609749 0
0.00270479 -0.0414555 0
0.00130668 -0.044877 0
0.0016522 -0.055611 0
0.00417501 -0.0401791 0
0.0818876 -0.196827 0
0.295544 -2.89979 0
0.0621917 -0.205446 0
0.373082 -1.16153 0
0.0947589 -0.820505 0
0.0416387 -0.0357057 0
0.0356636 -0.367385 0
0.772403 -0.561483 0
-0.000197316 -0.117948 0
0.0905093 -0.917261 0
0.525142 -0.414191 0
0.631429 -2.71498 0
0.382504 -0.253213 0
0.425868 -2.52874 0
0.678656 -0.399144 0
0.764407 -0.521019 0
0.710911 -3.04202 0
0.759075 -0.633224 0
0.0288854 -0.085577 0
1.3071 -1.98383 0
0.686613 -0.512822 0
-0.00131579 -0.0802706 0
0.666518 -0.590495 0
0.215166 -0.262727 0
0.206019 -0.587935 0
0.0680826 -0.167887 0
0.0547082 -0.0296199 0
0.129442 -2.7619 0
0.0939214 -0.185854 0
0.0545248 -0.0288026 0
0.0543725 -0.166586 0
0.0523738 -0.143385 0
0.0430674 -0.136257 0
0.0359392 -0.0311067 0
0.32213 -1.61221 0
0.199543 -0.168243 0
0.194816 -0.252609 0
0.315884 -0.143316 0
0.105225 -0.893393 0
-0.0136359 -1.24881 0
0.00807455 -0.961659 0
0.00377179 -0.124341 0
0.0066577 -0.962983 0
-0.00303761 -0.767039 0
0.0860082 -0.176934 0
0.963367 -1.7516 0
0.297882 -0.114197 0
1.03901 -1.49403 0
0.275474 -0.096315 0
-0.0285758 -1.04457 0
-0.945417 -1.81956 0
-0.0525719 -1.10362 0
-0.0600279 -0.559411 0
0.944601 -1.74888 0
0.0949287 -0.211087 0
0.729199 -1.54896 0
0.609071 -0.270891 0
-0.115067 -1.46398 0
0.0400903 -0.204925 0
0.0212894 -0.978025 0
0.0582238 -1.13697 0
0.11017 -0.865964 0
0.643391 -1.24272 0
0.709677 -0.372284 0
-0.154462 -1.48406 0
-0.246984 -0.745193 0
0.0173431 -0.188356 0
0.0965175 -1.06028 0
-1.09199 -1.7613 0
0.0388666 -1.25393 0
0.320706 -0.188858 0
0.532054 -2.18573 0
0.024114 -0.970456 0
0.373132 -0.280394 0
0.352012 -0.231428 0
0.800302 -0.65825 0
0.042325 -0.104013 0
0.553075 -1.44406 0
1.01908 -0.70981 0
0.00692257 -0.0572017 0
0.0422927 -0.133273 0
0.0549687 -0.0422386 0
0.0572145 -1.7752 0
0.562066 -1.93835 0
-0.711826 -2.48335 0
0.748816 -1.9595 0
0.669036 -2.16884 0
0.333808 -0.581268 0
0.0266198 -0.0156178 0
0.130028 -0.0919206 0
0.901226 -0.485439 0
0.0696676 -0.164289 0
0.106914 -0.0995441 0
0.0595863 -0.04333 0
0.106229 -0.0800373 0
-0.140699 -1.47346 0
1.28734 -1.85915 0
0.309115 -0.46134 0
0.402753 -0.485691 0
0.140048 -0.305414 0
0.0244272 -0.0123323 0
0.198164 -0.449007 0
0.171155 -0.37812 0
0.040339 -0.0627862 0
0.143972 -0.301593 0
1.21482 -1.31316 0
0.374113 -1.15486 0
0.670139 -0.319066 0
0.142741 -0.387807 0
0.0138324 -0.0198661 0
0.0749561 -0.456313 0
-0.131967 -0.149767 0
0.100907 -0.438346 0
-0.153214 -0.148088 0
0.317228 -0.440521 0
-0.291967 -0.901686 0
0.0917772 -0.894128 0
0.27569 -0.401477 0
0.234224 -0.523987 0
0.0272733 -0.017143 0
0.327187 -0.686214 0
0.0705986 -0.128639 0
0.384972 -0.775831 0
0.025141 -0.0172362 0
0.346449 -0.771029 0
0.0294546 -0.0200163 0
0.189536 -0.363876 0
0.0908435 -0.236935 0
-0.615328 -1.48628 0
0.554643 -0.880902 0
0.432931 -0.781782 0
0.495854 -0.915352 0
0.0303931 -0.0167761 0
0.516442 -0.902399 0
0.870965 -0.444531 0
0.715354 -0.764656 0
0.177116 -0.756217 0
0.099746 -0.529046 0
-0.112872 -0.17539 0
0.126654 -0.480899 0
0.0186361 -0.0164211 0
0.0673821 -0.529674 0
-0.110282 -0.187722 0
0.836288 -0.941194 0
0.192472 -0.86231 0
1.0391 -1.07575 0
0.236305 -0.849922 0
0.0370411 -0.0714118 0
0.0781221 -0.131731 0
1.06576 -1.31309 0
0.24371 -1.11532 0
0.0601701 -0.130823 0
0.101147 -0.0385977 0
0.0200061 -0.0159385 0
0.150357 -0.38285 0
0.0179163 -0.0178507 0
0.0178681 -0.0185083 0
0.765205 -0.359595 0
0.125504 -0.28793 0
1.08437 -0.819749 0
0.299875 -0.66531 0
1.15128 -0.866671 0
0.0074987 -0.0218822 0
-0.01815 -0.548609 0
0.125215 -0.506065 0
-0.893051 -1.11042 0
-0.978092 -1.19415 0
-0.134165 -1.13765 0
-0.874929 -1.22885 0
0.363464 -0.911921 0
0.00202987 -0.0948125 0
0.369473 -0.7791 0
1.23441 -0.985495 0
0.406995 -0.894071 0
1.12457 -1.15502 0
0.00355046 -0.0225708 0
0.283709 -0.461879 0
0.567077 -0.234138 0
0.506991 -0.757077 0
0.374681 -0.150783 0
0.174753 -0.15147 0
0.0390411 -0.0477113 0
0.0763124 -0.116255 0
0.141866 -0.133068 0
0.0417478 -0.039254 0
0.806271 -1.52351 0
0.033068 -0.0437048 0
0.848423 -2.061 0
0.739931 -1.97466 0
0.106965 -1.13579 0
0.657925 -1.54841 0
0.0980803 -0.602251 0
0.38344 -0.576279 0
0.272807 -0.162884 0
0.162253 -0.282514 0
0.500893 -0.298332 0
-0.21531 -0.248512 0
0.00698566 -0.574054 0
0.130481 -0.137954 0
0.0352154 -0.0246004 0
0.106111 -0.121447 0
0.032053 -0.0195249 0
0.0169218 -0.12098 0
0.335454 -1.56061 0
0.575018 -1.73113 0
0.499311 -1.48458 0
0.0667163 -0.122533 0
0.291259 -1.37597 0
0.023691 -0.0849041 0
0.128145 -0.120048 0
0.0375204 -0.0355746 0
0.0257616 -0.10787 0
0.0497578 -0.0807688 0
0.108743 -0.112059 0
0.0673442 -0.0320398 0
0.892587 -1.89245 0
0.0418014 -0.0646569 0
1.01175 -1.62297 0
0.0376925 -0.0420463 0
0.947378 -1.58666 0
0.0406095 -0.139687 0
0.123324 -0.138811 0
0.0312129 -0.0322238 0
0.0227575 -0.129639 0
0.809631 -1.94092 0
0.0329133 -0.0994583 0
0.769929 -1.97768 0
0.0460988 -0.0465593 0
0.108362 -0.256493 0
0.229728 -1.45517 0
-0.112924 -0.634522 0
0.281534 -0.397283 0
0.0531043 -0.166994 0
0.14513 -1.28177 0
0.026961 -0.0587148 0
0.0258891 -0.0640618 0
0.679468 -1.80328 0
0.104433 -0.106702 0
0.099208 -0.0253996 0
0.143019 -0.132935 0
0.0444016 -0.058804 0
0.196789 -0.173857 0
0.069954 -0.0268545 0
0.12256 -0.122222 0
0.222012 -0.18359 0
0.034236 -0.0807642 0
0.209378 -0.190746 0
0.0403314 -0.0621268 0
0.219049 -0.203758 0
0.23831 -0.197519 0
0.0233027 -0.0711964 0
0.00271305 -0.0372528 0
0.679787 -0.569752 0
0.00809922 -0.061505 0
1.01733 -0.728601 0
0.941358 -0.623033 0
0.51837 -0.422143 0
0.0103684 -0.0398996 0
0.00498211 -0.0301185 0
0.684924 -0.601226 0
0.0204137 -0.0662203 0
0.60432 -0.515726 0
0.0152447 -0.0595434 0
0.00135813 -0.0232101 0
0.627819 -0.511547 0
-0.00175647 -0.0466306 0
0.00589442 -0.0231989 0
0.00145891 -0.0218879 0
-0.12338 -0.892639 0
0.041601 -0.155739 0
0.0442615 -0.211544 0
0.579816 -1.91698 0
0.0476965 -0.178426 0
0.504064 -1.8163 0
0.0547045 -0.187643 0
0.037897 -0.188477 0
0.193216 -1.26786 0
0.0349757 -0.099202 0
0.100939 -1.04023 0
-0.292514 -0.607236 0
0.0867305 -0.168118 0
0.477217 -1.63012 0
0.69478 -0.769368 0
0.0974632 -0.85075 0
-0.0161038 -0.0341997 0
-0.00872539 -0.0394687 0
-0.183806 -1.27012 0
-0.440759 -0.967456 0
0.0486855 -0.0288877 0
0.121881 -0.160458 0
-0.195609 -1.39509 0
0.0878814 -0.0242658 0
0.110021 -0.0216253 0
0.152957 -0.185148 0
-0.0401752 -0.780688 0
0.12729 -1.14986 0
-0.463072 -0.585738 0
0.107299 -0.0380718 0
0.13422 -0.0367772 0
-0.0156932 -0.0456436 0
0.264807 -0.290814 0
-0.0353809 -0.0543814 0
0.229168 -0.340285 0
0.000405049 -0.031223 0
0.363974 -0.315009 0
0.0721543 -0.938704 0
0.00409822 -0.029983 0
0.109196 -0.131708 0
0.593584 -1.53798 0
0.0441428 -0.0299712 0
0.0329521 -0.254689 0
0.269448 -1.32049 0
0.00686951 -0.426406 0
0.131356 -0.858006 0
0.0327337 -0.332777 0
0.400222 -1.38938 0
0.0309644 -0.389413 0
0.0194419 -0.677937 0
0.546316 -1.81243 0
0.384034 -0.22596 0
0.751131 -0.843551 0
0.0864469 -1.07534 0
0.881363 -0.882863 0
0.781813 -2.03784 0
0.00857846 -1.07779 0
0.700616 -0.786224 0
0.0788693 -0.726792 0
-0.480838 -0.432162 0
-0.00778388 -0.695744 0
-0.559685 -0.561215 0
0.110956 -0.143294 0
0.299515 -0.151866 0
0.106355 -0.792035 0
-0.626961 -0.546379 0
1.13859 -0.967553 0
-0.0696146 -0.691928 0
-0.579428 -0.632606 0
-0.0630956 -0.614738 0
-4.55302e-05 -0.0757241 0
-0.478609 -0.515269 0
0.0221529 -0.0340377 0
0.143116 -0.224131 0
0.0419498 -1.18247 0
0.0536986 -1.43806 0
-0.754166 -1.8657 0
0.183452 -0.365045 0
-0.168952 -1.3889 0
0.0351137 -0.0803595 0
-0.117268 -1.3163 0
-0.756017 -1.30799 0
0.0625445 -0.1553 0
0.116859 -0.0858652 0
-0.129986 -1.47677 0
0.158401 -0.408309 0
-0.118503 -1.73187 0
0.0283582 -0.101386 0
0.178238 -1.88094 0
0.0300027 -0.101207 0
0.0978249 -0.205538 0
0.0186664 -1.03919 0
0.423569 -1.6369 0
0.245995 -1.17486 0
0.0322239 -0.0507242 0
0.513553 -1.39253 0
-0.0034777 -0.685232 0
0.2196 -0.286168 0
0.11194 -0.0256843 0
0.247758 -0.325367 0
0.153821 -0.0376205 0
0.30216 -0.43489 0
0.186351 -0.0670275 0
0.273305 -0.375081 0
0.0385109 -0.0128588 0
0.320415 -0.441257 0
0.210372 -0.0832526 0
0.272185 -0.395495 0
0.0543968 -0.0246402 0
0.273659 -0.441327 0
0.0621422 -0.0294101 0
0.302174 -0.504752 0
0.0628503 -0.0208489 0
0.403174 -0.128531 0
0.432333 -0.173521 0
0.334021 -0.694914 0
0.409493 -0.154955 0
0.257233 -1.7611 0
0.0427634 -0.119774 0
0.134062 -0.162232 0
0.0384476 -0.119501 0
0.130585 -0.143109 0
0.0320347 -0.0225525 0
0.138446 -0.224521 0
0.233524 -0.356477 0
0.21359 -0.0552237 0
0.209903 -0.302616 0