# vtk DataFile Version 2.0
Unstructured Grid by M++
ASCII
DATASET UNSTRUCTURED_GRID
POINTS 81 float
  1.000000   0.625000 0
  0.750000   0.375000 0
  1.000000   0.000000 0
  0.875000   0.875000 0
  0.750000   0.125000 0
  1.000000   1.000000 0
  0.875000   0.250000 0
  0.625000   0.875000 0
  1.000000   0.750000 0
  0.875000   0.000000 0
  1.000000   0.250000 0
  0.625000   0.375000 0
  0.875000   0.500000 0
  0.625000   0.625000 0
  1.000000   0.500000 0
  0.750000   0.500000 0
  0.750000   1.000000 0
  1.000000   0.125000 0
  0.625000   0.250000 0
  0.750000   0.750000 0
  0.625000   0.000000 0
  0.125000   0.375000 0
  0.000000   0.500000 0
  0.125000   0.625000 0
  0.625000   1.000000 0
  1.000000   0.875000 0
  0.875000   0.125000 0
  0.500000   0.250000 0
  0.625000   0.500000 0
  0.250000   0.625000 0
  0.000000   0.625000 0
  0.375000   0.500000 0
  0.375000   0.000000 0
  0.000000   0.125000 0
  0.125000   0.875000 0
  0.875000   1.000000 0
  0.750000   0.250000 0
  0.375000   0.375000 0
  0.250000   0.375000 0
  0.625000   0.750000 0
  0.125000   0.125000 0
  0.500000   0.000000 0
  0.250000   0.875000 0
  0.125000   0.500000 0
  0.500000   0.375000 0
  0.125000   0.000000 0
  0.250000   0.750000 0
  0.250000   0.500000 0
  0.000000   0.875000 0
  0.875000   0.625000 0
  0.500000   0.750000 0
  0.750000   0.625000 0
  0.250000   0.000000 0
  0.375000   0.750000 0
  0.750000   0.875000 0
  0.625000   0.125000 0
  0.250000   0.250000 0
  0.375000   1.000000 0
  0.375000   0.250000 0
  0.000000   0.375000 0
  0.500000   1.000000 0
  0.875000   0.750000 0
  0.750000   0.000000 0
  0.375000   0.125000 0
  0.500000   0.875000 0
  0.000000   0.000000 0
  0.125000   0.750000 0
  0.500000   0.625000 0
  0.125000   0.250000 0
  0.500000   0.125000 0
  0.250000   1.000000 0
  0.250000   0.125000 0
  0.000000   1.000000 0
  0.375000   0.875000 0
  0.000000   0.750000 0
  0.375000   0.625000 0
  0.000000   0.250000 0
  0.125000   1.000000 0
  1.000000   0.375000 0
  0.500000   0.500000 0
  0.875000   0.375000 0
CELLS 64 320
4 56 71 58 63
4 27 58 69 63
4 41 69 32 63
4 76 33 68 40
4 27 44 58 37
4 79 31 44 37
4 56 38 68 21
4 56 58 38 37
4 52 32 71 63
4 47 38 31 37
4 76 68 59 21
4 22 59 43 21
4 65 45 33 40
4 47 43 38 21
4 52 71 45 40
4 56 68 71 40
4 74 30 66 23
4 46 66 29 23
4 22 43 30 23
4 72 48 77 34
4 46 53 42 73
4 50 64 53 73
4 70 42 57 73
4 74 66 48 34
4 46 42 66 34
4 47 29 43 23
4 70 77 42 34
4 60 57 64 73
4 79 67 31 75
4 47 31 29 75
4 50 53 67 75
4 46 29 53 75
4 10 78 6 80
4 36 6 1 80
4 15 1 12 80
4 36 4 6 26
4 14 12 78 80
4 2 17 9 26
4 36 18 4 55
4 15 28 1 11
4 62 4 20 55
4 10 6 17 26
4 27 18 44 11
4 62 9 4 26
4 27 69 18 55
4 36 1 18 11
4 41 20 69 55
4 79 44 28 11
4 16 24 54 7
4 19 54 39 7
4 50 39 64 7
4 8 25 61 3
4 60 64 24 7
4 79 28 67 13
4 19 51 61 49
4 8 61 0 49
4 15 51 28 13
4 19 39 51 13
4 50 67 39 13
4 19 61 54 3
4 14 0 12 49
4 5 35 25 3
4 15 12 51 49
4 16 54 35 3
CELL_TYPES 64
8
8
8
8
8
8
8
8
8
8
8
8
8
8
8
8
8
8
8
8
8
8
8
8
8
8
8
8
8
8
8
8
8
8
8
8
8
8
8
8
8
8
8
8
8
8
8
8
8
8
8
8
8
8
8
8
8
8
8
8
8
8
8
8
CELL_DATA 64
VECTORS vector_value float
1.62976 -4.62772 0
0.274652 -0.297747 0
0.238347 -0.788366 0
0.060512 -0.0686329 0
-0.0878881 -0.135493 0
-0.300229 -0.188847 0
1.16522 -2.85251 0
0.483948 -2.61853 0
0.0555581 -4.84442 0
-0.243644 -1.61327 0
0.250614 -0.387202 0
0.387755 -1.08496 0
0.000396713 -0.0101108 0
0.517473 -2.93988 0
0.00822126 -0.215279 0
0.978588 -1.02731 0
0.242676 -1.81016 0
-0.0897323 -2.03405 0
0.108079 -1.50065 0
-0.195085 -0.917927 0
-0.453537 -0.543099 0
-0.595856 -0.978679 0
-0.85302 -0.399805 0
-0.359936 -2.15342 0
-0.126795 -1.11703 0
0.0527617 -2.64913 0
-1.12212 -1.89114 0
-0.527214 -0.995712 0
-0.638405 -0.5888 0
-0.26022 -0.695438 0
-0.287674 -0.768448 0
-0.497188 -0.551111 0
0.0587052 -0.466676 0
0.112596 -0.075707 0
-0.00365639 -0.0534546 0
0.613333 -0.31742 0
-0.00622577 -0.396834 0
0.0629148 -1.14454 0
0.237612 -0.511545 0
-0.0396459 -0.837919 0
0.0412551 -0.441672 0
0.263311 -0.772909 0
0.0366491 -0.494777 0
0.0356235 -0.0791196 0
0.0665977 -0.376718 0
0.27691 -0.969101 0
0.0800182 -0.476496 0
-0.117582 -0.884838 0
-0.357677 -0.746971 0
-0.183028 -0.986155 0
-0.369936 -0.698953 0
0.00674437 -1.25926 0
-0.473467 -0.905526 0
-0.672547 -0.752614 0
-0.435317 -0.452509 0
-0.283223 -1.05505 0
-0.861198 -1.01273 0
-0.162859 -0.82418 0
-0.132819 -0.504489 0
-0.017325 -0.263407 0
-0.135236 -0.589291 0
0.115765 -0.890528 0
-0.509964 -0.211341 0
-0.105256 -1.25239 0
