# vtk DataFile Version 2.0
Unstructured Grid by M++
ASCII
DATASET UNSTRUCTURED_GRID
POINTS 81 float
  1.000000   0.625000 0
  0.750000   0.375000 0
  1.000000   0.000000 0
  0.875000   0.875000 0
  0.750000   0.125000 0
  1.000000   1.000000 0
  0.875000   0.250000 0
  0.625000   0.875000 0
  1.000000   0.750000 0
  0.875000   0.000000 0
  1.000000   0.250000 0
  0.625000   0.375000 0
  0.875000   0.500000 0
  0.625000   0.625000 0
  1.000000   0.500000 0
  0.750000   0.500000 0
  0.750000   1.000000 0
  1.000000   0.125000 0
  0.625000   0.250000 0
  0.750000   0.750000 0
  0.625000   0.000000 0
  0.125000   0.375000 0
  0.000000   0.500000 0
  0.125000   0.625000 0
  0.625000   1.000000 0
  1.000000   0.875000 0
  0.875000   0.125000 0
  0.500000   0.250000 0
  0.625000   0.500000 0
  0.250000   0.625000 0
  0.000000   0.625000 0
  0.375000   0.500000 0
  0.375000   0.000000 0
  0.000000   0.125000 0
  0.125000   0.875000 0
  0.875000   1.000000 0
  0.750000   0.250000 0
  0.375000   0.375000 0
  0.250000   0.375000 0
  0.625000   0.750000 0
  0.125000   0.125000 0
  0.500000   0.000000 0
  0.250000   0.875000 0
  0.125000   0.500000 0
  0.500000   0.375000 0
  0.125000   0.000000 0
  0.250000   0.750000 0
  0.250000   0.500000 0
  0.000000   0.875000 0
  0.875000   0.625000 0
  0.500000   0.750000 0
  0.750000   0.625000 0
  0.250000   0.000000 0
  0.375000   0.750000 0
  0.750000   0.875000 0
  0.625000   0.125000 0
  0.250000   0.250000 0
  0.375000   1.000000 0
  0.375000   0.250000 0
  0.000000   0.375000 0
  0.500000   1.000000 0
  0.875000   0.750000 0
  0.750000   0.000000 0
  0.375000   0.125000 0
  0.500000   0.875000 0
  0.000000   0.000000 0
  0.125000   0.750000 0
  0.500000   0.625000 0
  0.125000   0.250000 0
  0.500000   0.125000 0
  0.250000   1.000000 0
  0.250000   0.125000 0
  0.000000   1.000000 0
  0.375000   0.875000 0
  0.000000   0.750000 0
  0.375000   0.625000 0
  0.000000   0.250000 0
  0.125000   1.000000 0
  1.000000   0.375000 0
  0.500000   0.500000 0
  0.875000   0.375000 0
CELLS 64 320
4 56 71 58 63
4 27 58 69 63
4 41 69 32 63
4 76 33 68 40
4 27 44 58 37
4 79 31 44 37
4 56 38 68 21
4 56 58 38 37
4 52 32 71 63
4 47 38 31 37
4 76 68 59 21
4 22 59 43 21
4 65 45 33 40
4 47 43 38 21
4 52 71 45 40
4 56 68 71 40
4 74 30 66 23
4 46 66 29 23
4 22 43 30 23
4 72 48 77 34
4 46 53 42 73
4 50 64 53 73
4 70 42 57 73
4 74 66 48 34
4 46 42 66 34
4 47 29 43 23
4 70 77 42 34
4 60 57 64 73
4 79 67 31 75
4 47 31 29 75
4 50 53 67 75
4 46 29 53 75
4 10 78 6 80
4 36 6 1 80
4 15 1 12 80
4 36 4 6 26
4 14 12 78 80
4 2 17 9 26
4 36 18 4 55
4 15 28 1 11
4 62 4 20 55
4 10 6 17 26
4 27 18 44 11
4 62 9 4 26
4 27 69 18 55
4 36 1 18 11
4 41 20 69 55
4 79 44 28 11
4 16 24 54 7
4 19 54 39 7
4 50 39 64 7
4 8 25 61 3
4 60 64 24 7
4 79 28 67 13
4 19 51 61 49
4 8 61 0 49
4 15 51 28 13
4 19 39 51 13
4 50 67 39 13
4 19 61 54 3
4 14 0 12 49
4 5 35 25 3
4 15 12 51 49
4 16 54 35 3
CELL_TYPES 64
8
8
8
8
8
8
8
8
8
8
8
8
8
8
8
8
8
8
8
8
8
8
8
8
8
8
8
8
8
8
8
8
8
8
8
8
8
8
8
8
8
8
8
8
8
8
8
8
8
8
8
8
8
8
8
8
8
8
8
8
8
8
8
8
CELL_DATA 64
VECTORS vector_value float
-0.120029 -0.404454 0
-0.169042 -1.42817 0
-0.0424023 -1.19896 0
0.0268176 -0.210138 0
0.0101257 -1.41008 0
-0.106317 -1.13445 0
0.0289481 -0.0507614 0
0.0868501 -0.241019 0
-0.0993414 -0.540364 0
0.0424598 -0.370981 0
0.0231322 -0.283568 0
-0.0352976 -0.283545 0
0.0256111 -0.150497 0
-0.0303998 -0.0869914 0
-0.0206804 -0.227691 0
0.048333 -0.087258 0
-0.0287602 -0.106343 0
-0.0535121 -0.193026 0
-0.0350543 -0.205465 0
0.414513 -0.40605 0
0.883405 -0.986855 0
0.980237 -0.232177 0
0.902606 -1.28074 0
0.0380585 -0.0988214 0
0.38918 -0.566585 0
-0.0399173 -0.12819 0
0.910259 -1.0439 0
1.18501 -0.226669 0
-0.0583936 -0.64013 0
0.0236779 -0.515534 0
0.17568 -0.414861 0
0.115445 -0.679358 0
-0.361419 -1.19312 0
-0.157678 -1.77479 0
-0.136557 -1.64832 0
-1.04481 -2.02854 0
-0.00745432 -1.33987 0
-0.0257477 -0.118731 0
-0.540676 -1.21987 0
-0.388848 -1.91901 0
-0.30063 -2.10528 0
-0.223977 -0.302904 0
-0.721403 -2.24668 0
-0.193795 -1.30078 0
-0.0545157 -2.31866 0
-0.458213 -0.799988 0
0.00133036 -2.3577 0
-0.0787349 -1.21684 0
-0.0610038 -2.01974 0
0.916604 -2.88786 0
0.935132 -1.95413 0
0.017227 -0.194518 0
1.25167 -1.75383 0
-0.0827501 -1.78223 0
1.01278 -1.38226 0
0.464087 -0.90585 0
-0.0765003 -1.06813 0
0.831313 -2.57001 0
-0.0468692 -1.74829 0
0.558945 -1.07905 0
0.0671978 -1.34131 0
-0.374839 -0.427019 0
0.00864728 -2.31901 0
-0.810711 -0.842041 0
