# vtk DataFile Version 2.0
Unstructured Grid by M++
ASCII
DATASET UNSTRUCTURED_GRID
POINTS 289 float
  0.562500   1.000000 0
  0.562500   0.625000 0
  0.625000   1.000000 0
  0.562500   0.937500 0
  0.562500   0.562500 0
  0.625000   0.937500 0
  0.562500   0.875000 0
  0.625000   0.750000 0
  0.625000   0.625000 0
  0.562500   0.812500 0
  0.562500   0.750000 0
  0.562500   0.687500 0
  0.625000   0.875000 0
  0.625000   0.812500 0
  0.625000   0.687500 0
  0.687500   0.125000 0
  0.875000   0.062500 0
  0.625000   0.125000 0
  0.625000   0.187500 0
  0.625000   0.250000 0
  0.812500   0.187500 0
  1.000000   0.125000 0
  0.687500   0.187500 0
  0.750000   0.125000 0
  0.937500   0.062500 0
  0.937500   0.125000 0
  0.750000   0.187500 0
  0.812500   0.062500 0
  0.812500   0.125000 0
  0.875000   0.687500 0
  0.187500   0.250000 0
  0.437500   0.250000 0
  0.375000   0.187500 0
  0.812500   0.625000 0
  0.125000   0.187500 0
  0.937500   0.750000 0
  0.250000   0.312500 0
  0.500000   0.312500 0
  0.625000   0.062500 0
  0.437500   0.500000 0
  0.375000   0.125000 0
  0.437500   0.187500 0
  0.437500   0.437500 0
  0.437500   0.375000 0
  0.875000   0.875000 0
  0.187500   0.375000 0
  0.687500   0.562500 0
  0.687500   0.625000 0
  0.000000   0.125000 0
  0.937500   0.625000 0
  0.250000   0.125000 0
  0.375000   0.062500 0
  0.375000   0.000000 0
  0.812500   0.500000 0
  0.125000   0.000000 0
  0.937500   0.937500 0
  0.250000   0.437500 0
  0.687500   0.875000 0
  0.687500   0.937500 0
  0.000000   0.437500 0
  0.500000   0.500000 0
  0.500000   0.437500 0
  0.750000   0.937500 0
  0.750000   1.000000 0
  0.062500   0.500000 0
  1.000000   1.000000 0
  0.312500   0.500000 0
  0.875000   0.562500 0
  0.187500   0.062500 0
  0.437500   0.125000 0
  0.437500   0.062500 0
  0.500000   0.375000 0
  0.937500   0.812500 0
  0.937500   0.875000 0
  0.250000   0.375000 0
  0.687500   0.812500 0
  0.000000   0.375000 0
  0.750000   0.562500 0
  0.062500   0.125000 0
  1.000000   0.562500 0
  1.000000   0.625000 0
  0.312500   0.125000 0
  0.562500   0.125000 0
  0.437500   0.000000 0
  0.875000   0.437500 0
  0.875000   0.500000 0
  0.187500   0.000000 0
  0.937500   0.562500 0
  0.937500   0.500000 0
  0.250000   0.062500 0
  0.687500   0.500000 0
  0.000000   0.062500 0
  0.500000   0.062500 0
  1.000000   0.875000 0
  1.000000   0.937500 0
  0.312500   0.437500 0
  0.750000   0.875000 0
  0.062500   0.437500 0
  0.812500   0.937500 0
  0.125000   0.500000 0
  0.375000   0.500000 0
  0.625000   0.562500 0
  0.625000   0.500000 0
  0.437500   0.312500 0
  0.875000   0.812500 0
  0.875000   0.750000 0
  0.187500   0.312500 0
  0.812500   0.687500 0
  0.812500   0.750000 0
  0.125000   0.250000 0
  0.375000   0.250000 0
  1.000000   0.687500 0
  0.312500   0.187500 0
  0.750000   0.687500 0
  0.750000   0.625000 0
  0.062500   0.187500 0
  0.562500   0.250000 0
  0.562500   0.187500 0
  0.375000   1.000000 0
  0.500000   0.562500 0
  0.500000   0.250000 0
  0.750000   0.250000 0
  0.500000   0.125000 0
  0.500000   0.187500 0
  1.000000   0.187500 0
  0.625000   0.375000 0
  0.875000   0.375000 0
  1.000000   0.437500 0
  0.312500   0.000000 0
  0.562500   0.000000 0
  0.812500   0.000000 0
  0.250000   0.687500 0
  0.000000   0.687500 0
  0.500000   1.000000 0
  0.250000   1.000000 0
  0.000000   1.000000 0
  0.437500   0.687500 0
  0.437500   0.625000 0
  0.187500   0.625000 0
  0.687500   0.750000 0
  0.000000   0.312500 0
  0.000000   0.250000 0
  0.375000   0.375000 0
  0.375000   0.312500 0
  0.812500   0.812500 0
  0.125000   0.312500 0
  0.875000   0.625000 0
  0.187500   0.187500 0
  0.187500   0.125000 0
  0.937500   1.000000 0
  0.250000   0.562500 0
  0.250000   0.500000 0
  0.687500   1.000000 0
  0.000000   0.500000 0
  0.687500   0.687500 0
  0.000000   0.187500 0
  0.937500   0.687500 0
  0.250000   0.250000 0
  0.250000   0.187500 0
  0.187500   0.687500 0
  0.000000   0.750000 0
  0.250000   0.750000 0
  0.125000   0.625000 0
  0.750000   0.750000 0
  0.062500   0.250000 0
  0.875000   0.937500 0
  0.187500   0.500000 0
  0.187500   0.437500 0
  0.812500   0.562500 0
  0.125000   0.125000 0
  0.125000   0.062500 0
  0.375000   0.625000 0
  0.375000   0.687500 0
  1.000000   0.750000 0
  0.312500   0.250000 0
  0.312500   0.312500 0
  0.812500   0.312500 0
  0.562500   0.312500 0
  0.375000   0.750000 0
  0.500000   0.625000 0
  0.250000   0.625000 0
  0.312500   0.687500 0
  0.750000   0.812500 0
  0.062500   0.312500 0
  0.062500   0.375000 0
  1.000000   0.812500 0
  0.312500   0.375000 0
  0.562500   0.375000 0
  0.687500   0.437500 0
  0.000000   0.000000 0
  0.500000   0.000000 0
  0.937500   0.437500 0
  0.250000   0.000000 0
  0.375000   0.437500 0
  0.812500   0.875000 0
  0.125000   0.375000 0
  0.125000   0.437500 0
  0.625000   0.437500 0
  1.000000   0.500000 0
  0.312500   0.062500 0
  0.750000   0.500000 0
  0.062500   0.000000 0
  0.062500   0.062500 0
  0.562500   0.062500 0
  0.062500   0.750000 0
  0.312500   0.750000 0
  0.312500   0.625000 0
  0.312500   0.562500 0
  0.062500   0.562500 0
  0.187500   1.000000 0
  0.437500   0.562500 0
  0.875000   1.000000 0
  0.187500   0.562500 0
  0.500000   0.937500 0
  0.250000   0.937500 0
  0.312500   1.000000 0
  0.125000   0.750000 0
  0.125000   0.687500 0
  1.000000   0.000000 0
  0.000000   0.937500 0
  0.000000   0.875000 0
  0.875000   0.125000 0
  0.875000   0.187500 0
  0.062500   0.812500 0
  0.312500   0.812500 0
  0.000000   0.812500 0
  0.000000   0.625000 0
  0.000000   0.562500 0
  0.062500   1.000000 0
  0.062500   0.937500 0
  0.937500   0.187500 0
  0.937500   0.250000 0
  0.062500   0.687500 0
  0.062500   0.625000 0
  0.125000   1.000000 0
  1.000000   0.250000 0
  1.000000   0.312500 0
  0.062500   0.875000 0
  0.125000   0.812500 0
  0.375000   0.812500 0
  0.125000   0.875000 0
  0.375000   0.937500 0
  0.375000   0.875000 0
  0.187500   0.750000 0
  0.187500   0.812500 0
  0.437500   0.812500 0
  0.187500   0.875000 0
  0.437500   0.875000 0
  0.375000   0.562500 0
  0.812500   1.000000 0
  0.125000   0.562500 0
  0.437500   1.000000 0
  0.437500   0.937500 0
  0.187500   0.937500 0
  0.125000   0.937500 0
  0.500000   0.687500 0
  0.500000   0.750000 0
  0.500000   0.812500 0
  0.250000   0.812500 0
  0.250000   0.875000 0
  0.500000   0.875000 0
  0.437500   0.750000 0
  0.312500   0.875000 0
  0.312500   0.937500 0
  0.687500   0.250000 0
  0.687500   0.312500 0
  0.937500   0.312500 0
  0.875000   0.250000 0
  0.625000   0.000000 0
  0.875000   0.000000 0
  0.687500   0.375000 0
  0.937500   0.375000 0
  0.875000   0.312500 0
  0.625000   0.312500 0
  0.687500   0.000000 0
  0.937500   0.000000 0
  0.750000   0.312500 0
  0.750000   0.375000 0
  1.000000   0.375000 0
  0.812500   0.250000 0
  0.562500   0.437500 0
  0.562500   0.500000 0
  0.687500   0.062500 0
  0.750000   0.437500 0
  0.750000   0.000000 0
  0.750000   0.062500 0
  1.000000   0.062500 0
  0.812500   0.375000 0
  0.812500   0.437500 0
CELLS 256 1280
4 169 170 148 68
4 151 166 56 167
4 195 45 196 167
4 54 170 201 202
4 109 34 30 147
4 40 32 81 112
4 192 89 86 68
4 48 91 78 202
4 99 64 196 97
4 71 43 37 103
4 74 186 56 95
4 109 164 34 115
4 50 81 158 112
4 122 69 92 70
4 195 145 45 106
4 110 143 174 175
4 157 30 158 147
4 40 69 32 41
4 50 158 148 147
4 141 155 164 115
4 122 123 69 41
4 142 186 143 175
4 60 39 61 42
4 40 51 69 70
4 120 31 123 41
4 157 174 36 175
4 50 148 89 68
4 48 78 155 115
4 52 83 51 70
4 151 56 66 95
4 71 61 43 42
4 169 148 34 147
4 100 193 39 42
4 40 81 51 199
4 110 174 32 112
4 109 30 145 106
4 100 66 193 95
4 169 34 78 115
4 190 92 83 70
4 50 89 81 199
4 54 86 170 68
4 74 56 45 167
4 142 143 43 103
4 153 59 64 97
4 99 196 166 167
4 169 78 170 202
4 142 193 186 95
4 192 128 89 199
4 74 45 36 106
4 110 31 143 103
4 76 184 59 97
4 142 43 193 42
4 52 51 128 199
4 189 201 91 202
4 120 37 31 103
4 74 36 186 175
4 195 196 184 97
4 141 164 140 183
4 157 158 174 112
4 109 145 164 183
4 195 184 145 183
4 110 32 31 41
4 157 36 30 106
4 76 140 184 183
4 171 172 206 181
4 178 172 261 136
4 256 261 255 136
4 256 257 261 245
4 180 150 206 207
4 60 119 39 210
4 118 215 241 263
4 178 205 172 181
4 216 243 238 244
4 162 217 233 232
4 180 206 131 181
4 179 137 119 210
4 216 204 217 232
4 220 237 219 229
4 216 217 243 159
4 259 258 262 224
4 240 254 237 229
4 153 64 227 208
4 161 205 258 224
4 240 237 238 223
4 226 227 233 208
4 234 228 254 229
4 171 248 137 210
4 160 132 204 232
4 180 131 138 159
4 133 251 213 252
4 171 206 248 207
4 162 138 217 159
4 161 258 243 244
4 220 225 237 223
4 151 150 166 212
4 260 247 257 245
4 259 262 214 263
4 151 66 150 207
4 234 254 209 253
4 162 233 250 208
4 242 241 262 263
4 171 137 172 136
4 161 243 131 159
4 160 204 225 223
4 161 131 205 181
4 179 255 137 136
4 216 238 204 223
4 100 39 248 210
4 260 213 247 252
4 226 233 132 232
4 134 214 215 263
4 180 138 150 212
4 178 261 239 245
4 259 246 258 244
4 178 239 205 224
4 240 238 246 244
4 242 262 239 224
4 99 250 64 208
4 240 246 254 253
4 242 239 247 245
4 135 219 228 229
4 99 166 250 212
4 259 214 246 253
4 118 241 251 252
4 100 248 66 207
4 134 209 214 253
4 162 250 138 212
4 242 247 241 252
4 71 187 61 280
4 102 281 197 280
4 122 92 82 203
4 17 18 82 117
4 122 82 123 117
4 19 264 273 265
4 267 279 222 20
4 125 273 270 265
4 267 272 279 176
4 19 116 18 117
4 21 25 286 24
4 23 28 26 20
4 23 285 28 27
4 218 286 275 24
4 85 53 84 288
4 235 236 231 266
4 221 222 28 20
4 267 222 231 230
4 268 38 129 203
4 125 270 197 188
4 126 287 272 176
4 277 270 276 265
4 267 231 272 266
4 125 197 187 280
4 190 129 92 203
4 277 276 287 176
4 19 18 264 22
4 17 82 38 203
4 102 197 90 188
4 126 84 287 288
4 284 130 285 27
4 121 276 264 265
4 71 37 187 177
4 120 123 116 117
4 198 88 127 191
4 221 16 25 24
4 23 26 15 22
4 121 279 276 176
4 235 231 124 230
4 125 187 273 177
4 278 271 236 266
4 277 287 283 288
4 284 285 274 282
4 278 127 271 191
4 269 275 16 24
4 200 283 53 288
4 23 15 285 282
4 121 26 279 20
4 21 124 25 230
4 19 273 116 177
4 200 90 283 188
4 126 271 84 191
4 269 16 130 27
4 17 38 15 282
4 221 25 222 230
4 121 264 26 22
4 120 116 37 177
4 60 61 281 280
4 277 283 270 188
4 126 272 271 266
4 268 274 38 282
4 85 84 88 191
4 17 15 18 22
4 221 28 16 27
4 93 94 73 55
4 85 88 67 87
4 80 49 79 87
4 44 104 73 72
4 146 33 67 168
4 211 165 149 55
4 8 47 14 154
4 105 104 108 144
4 105 108 29 107
4 7 139 13 75
4 44 165 194 98
4 200 53 77 168
4 8 1 101 4
4 2 5 152 58
4 260 6 213 3
4 105 35 104 72
4 96 57 182 75
4 7 14 139 154
4 146 29 33 107
4 7 13 10 9
4 12 13 57 75
4 85 67 53 168
4 44 73 165 55
4 63 152 62 58
4 8 101 47 46
4 96 182 194 144
4 60 281 119 4
4 12 5 6 3
4 173 185 35 72
4 65 149 94 55
4 146 67 49 87
4 114 113 47 154
4 163 108 182 144
4 12 6 13 9
4 173 35 111 156
4 163 182 139 75
4 260 257 6 9
4 105 29 35 156
4 163 139 113 154
4 256 10 257 9
4 146 49 29 156
4 163 113 108 107
4 80 111 49 156
4 102 101 281 4
4 12 57 5 58
4 44 194 104 144
4 96 194 62 98
4 2 0 5 3
4 93 73 185 72
4 179 119 1 4
4 200 77 90 46
4 114 33 113 107
4 7 10 14 11
4 96 62 57 58
4 133 213 0 3
4 102 90 101 46
4 256 255 10 11
4 63 62 249 98
4 114 47 77 46
4 179 1 255 11
4 211 249 165 98
4 114 77 33 168
4 198 79 88 87
4 8 14 1 11
CELL_TYPES 256
8
8
8
8
8
8
8
8
8
8
8
8
8
8
8
8
8
8
8
8
8
8
8
8
8
8
8
8
8
8
8
8
8
8
8
8
8
8
8
8
8
8
8
8
8
8
8
8
8
8
8
8
8
8
8
8
8
8
8
8
8
8
8
8
8
8
8
8
8
8
8
8
8
8
8
8
8
8
8
8
8
8
8
8
8
8
8
8
8
8
8
8
8
8
8
8
8
8
8
8
8
8
8
8
8
8
8
8
8
8
8
8
8
8
8
8
8
8
8
8
8
8
8
8
8
8
8
8
8
8
8
8
8
8
8
8
8
8
8
8
8
8
8
8
8
8
8
8
8
8
8
8
8
8
8
8
8
8
8
8
8
8
8
8
8
8
8
8
8
8
8
8
8
8
8
8
8
8
8
8
8
8
8
8
8
8
8
8
8
8
8
8
8
8
8
8
8
8
8
8
8
8
8
8
8
8
8
8
8
8
8
8
8
8
8
8
8
8
8
8
8
8
8
8
8
8
8
8
8
8
8
8
8
8
8
8
8
8
8
8
8
8
8
8
8
8
8
8
8
8
8
8
8
8
8
8
CELL_DATA 256
VECTORS vector_value float
-0.0948638 -0.28744 0
2.38307 -2.95422 0
0.483507 -1.14406 0
-0.0179689 -0.171515 0
0.0624659 -0.244105 0
0.00750013 -2.28875 0
-0.365735 -1.33518 0
-0.00421171 -0.0192783 0
0.0671449 -0.620586 0
0.766021 -1.36492 0
1.73995 -2.82765 0
0.0190214 -0.0869491 0
-0.206915 -2.65531 0
0.616276 -1.13131 0
0.482097 -0.808587 0
0.945092 -3.16805 0
0.148364 -0.516657 0
0.576806 -1.40236 0
-0.0701988 -0.57631 0
0.00649738 -0.0301651 0
1.02039 -1.43353 0
1.21463 -4.06188 0
0.183578 -0.387653 0
0.241585 -0.895235 0
1.44657 -1.25877 0
0.774334 -2.42102 0
-0.295789 -0.764621 0
0.00450629 -0.0146536 0
0.0434942 -0.654966 0
2.43763 -2.63582 0
0.728421 -0.858518 0
-0.0134952 -0.204599 0
0.667683 -1.18414 0
-0.132072 -1.75361 0
0.536057 -3.03886 0
0.152295 -0.252667 0
1.67544 -2.12732 0
-0.00268204 -0.111557 0
0.142428 -0.897082 0
-0.482023 -2.75295 0
-0.0772016 -0.403693 0
1.15546 -2.03947 0
0.474262 -1.69705 0
-0.00119518 -0.173736 0
1.04245 -2.5127 0
-0.0249731 -0.14072 0
1.36878 -2.55603 0
-0.23031 -2.17373 0
0.546154 -1.26558 0
1.34956 -2.84951 0
0.00875873 -0.14862 0
1.37286 -2.24751 0
-0.0357237 -1.61225 0
-0.00317824 -0.0272489 0
0.786716 -0.706976 0
0.902734 -2.25178 0
0.170965 -0.56695 0
0.0162081 -0.0564683 0
0.371892 -2.54736 0
0.0827108 -0.172473 0
0.120307 -0.261824 0
1.15019 -2.09435 0
0.760773 -1.12715 0
0.0360109 -0.126143 0
-0.462957 -0.565571 0
-1.57116 -0.300563 0
-1.75773 -0.468921 0
-1.19978 -0.462119 0
0.623266 -1.13731 0
0.0414609 -0.190626 0
-0.273601 -0.857761 0
-0.844677 -0.224683 0
-2.17575 -3.71996 0
1.37308 -2.72034 0
-0.247255 -0.697156 0
-0.0446752 -0.17886 0
-0.343624 -3.61475 0
0.125575 -0.608696 0
-0.943521 -3.96819 0
-2.02596 -0.920008 0
0.213829 -1.85685 0
0.00293201 -0.14005 0
-2.34348 -0.647803 0
0.036311 -1.61439 0
0.0915089 -0.286599 0
-0.165517 -1.49458 0
-0.0946519 -0.386787 0
0.0949907 -1.01252 0
0.190329 -1.54763 0
-0.922319 -1.14152 0
0.0264456 -0.875999 0
1.755 -5.4155 0
-2.57713 -1.72046 0
0.00140133 -0.522728 0
1.82994 -3.37421 0
-0.387539 -0.60477 0
-0.61154 -1.14159 0
1.74522 -2.03962 0
-0.44879 -0.928777 0
0.384031 -1.37949 0
-0.850591 -1.25878 0
-0.507652 -0.481168 0
-0.745632 -1.2448 0
-0.240561 -0.946402 0
-0.791307 -0.635407 0
-0.377634 -0.354646 0
-0.761454 -1.8869 0
0.307147 -0.571946 0
-0.345561 -0.779848 0
0.248791 -0.684458 0
-0.219124 -1.2045 0
1.84584 -3.19663 0
-1.3704 -0.260028 0
-1.91453 -1.82862 0
-2.16331 -0.352989 0
-0.399077 -2.11104 0
-1.39602 -0.931492 0
0.232821 -1.02621 0
-0.167905 -1.24377 0
-0.826189 -0.757087 0
0.0978115 -0.905987 0
1.07847 -3.90774 0
-0.47135 -0.821315 0
-0.565584 -1.37507 0
0.961552 -1.3774 0
-0.250566 -0.695268 0
1.35084 -5.16843 0
-0.791805 -1.3633 0
0.267313 -0.239397 0
0.0181494 -0.144747 0
0.719227 -1.53231 0
0.856504 -1.68354 0
0.902215 -1.29864 0
0.0333296 -0.299022 0
0.0352537 -0.167679 0
-0.0531465 -0.30112 0
0.0217788 -0.103009 0
0.889282 -1.75358 0
-0.201393 -0.68788 0
0.179544 -0.134949 0
0.319534 -0.263902 0
-0.0175369 -0.565242 0
-0.0698919 -0.262588 0
-0.0658913 -1.95797 0
0.0569735 -0.373945 0
-0.172965 -0.582667 0
0.136764 -1.57872 0
-0.0577807 -0.233175 0
0.000506038 -0.0750008 0
-0.0601775 -0.247584 0
-0.0476748 -0.295884 0
0.075648 -0.315506 0
0.168618 -1.69233 0
-0.0360924 -0.150986 0
0.276266 -0.625309 0
0.618851 -1.68346 0
-0.0132552 -0.203363 0
-0.0620318 -0.190269 0
0.223526 -0.468602 0
0.0171918 -0.251866 0
0.452104 -0.486068 0
1.01324 -1.07729 0
0.0614825 -1.78052 0
-0.443777 -1.50829 0
0.310793 -0.294716 0
0.0295266 -0.108764 0
-0.138789 -1.67249 0
0.171915 -0.650964 0
-0.0185184 -2.02078 0
-0.126761 -0.165617 0
0.27573 -0.909037 0
0.0947418 -2.02541 0
-0.0914201 -1.27731 0
-0.0782848 -0.128662 0
0.680016 -0.734091 0
0.0950641 -0.12581 0
-0.30032 -1.41269 0
0.347744 -1.10206 0
-0.0870075 -0.227867 0
0.0452146 -0.182607 0
-0.0695473 -1.13212 0
0.705369 -1.28148 0
-0.188496 -0.773384 0
0.0703512 -0.177963 0
1.02559 -1.1271 0
0.0541623 -0.171343 0
-0.0944388 -0.259217 0
0.00535742 -0.229732 0
0.206016 -1.10098 0
0.0772263 -0.484742 0
0.85226 -1.34106 0
0.0622571 -0.563415 0
0.0116141 -1.12708 0
0.0343135 -0.726623 0
-0.0086997 -1.60252 0
0.244451 -1.60965 0
-0.0987116 -0.325572 0
0.0737905 -0.653427 0
-0.31769 -0.0388034 0
-0.564198 -1.41599 0
-0.306137 -0.689325 0
-0.819148 -0.038355 0
0.54963 -1.89844 0
-0.0991147 -0.148909 0
-0.0571089 -0.0976122 0
0.555641 -0.592681 0
-0.123451 -0.472342 0
-0.0577446 -0.865786 0
-0.107829 -0.280279 0
-1.60875 0.0087826 0
-0.141703 -0.477455 0
-1.27938 -0.0740844 0
-0.191758 -0.123831 0
-0.0890271 -0.302103 0
0.387833 -1.34304 0
1.07398 -0.808397 0
-0.110148 -0.098293 0
-0.143473 -1.03341 0
0.00406054 -0.147259 0
-0.00793433 -0.179914 0
0.0739142 -1.7684 0
0.0828034 -1.17169 0
-0.0424878 -0.818737 0
-0.370353 -0.137816 0
-0.891029 -0.991669 0
-0.253188 -0.290645 0
-0.0498026 -1.61387 0
-0.946235 -0.389004 0
-0.23238 -0.373821 0
-0.111536 -0.935906 0
-1.37377 -0.290806 0
-1.27875 -0.460044 0
-0.0234233 -0.819812 0
-0.936721 -0.687991 0
0.00246527 -1.60062 0
-0.00628972 -0.160206 0
0.01389 -0.318689 0
-0.0427638 -1.64686 0
0.449031 -1.21996 0
-0.142523 -0.256618 0
0.180745 -1.35137 0
-0.0289235 -0.162492 0
-0.0421721 -0.136323 0
-0.290448 -0.232158 0
-1.38537 0.0546183 0
0.231374 -0.366381 0
-0.719934 -0.888116 0
-0.0339565 -0.142112 0
-1.59007 -0.375673 0
1.16177 -1.14884 0
-0.133706 -0.153536 0
-0.22675 -0.187193 0
0.614635 -1.87676 0
-0.109848 -0.13114 0
0.0728829 -1.60865 0
-0.217614 -0.0396728 0
