# vtk DataFile Version 2.0
Unstructured Grid by M++
ASCII
DATASET UNSTRUCTURED_GRID
POINTS 81 float
  1.000000   0.625000 0
  0.750000   0.375000 0
  1.000000   0.000000 0
  0.875000   0.875000 0
  0.750000   0.125000 0
  1.000000   1.000000 0
  0.875000   0.250000 0
  0.625000   0.875000 0
  1.000000   0.750000 0
  0.875000   0.000000 0
  1.000000   0.250000 0
  0.625000   0.375000 0
  0.875000   0.500000 0
  0.625000   0.625000 0
  1.000000   0.500000 0
  0.750000   0.500000 0
  0.750000   1.000000 0
  1.000000   0.125000 0
  0.625000   0.250000 0
  0.750000   0.750000 0
  0.625000   0.000000 0
  0.125000   0.375000 0
  0.000000   0.500000 0
  0.125000   0.625000 0
  0.625000   1.000000 0
  1.000000   0.875000 0
  0.875000   0.125000 0
  0.500000   0.250000 0
  0.625000   0.500000 0
  0.250000   0.625000 0
  0.000000   0.625000 0
  0.375000   0.500000 0
  0.375000   0.000000 0
  0.000000   0.125000 0
  0.125000   0.875000 0
  0.875000   1.000000 0
  0.750000   0.250000 0
  0.375000   0.375000 0
  0.250000   0.375000 0
  0.625000   0.750000 0
  0.125000   0.125000 0
  0.500000   0.000000 0
  0.250000   0.875000 0
  0.125000   0.500000 0
  0.500000   0.375000 0
  0.125000   0.000000 0
  0.250000   0.750000 0
  0.250000   0.500000 0
  0.000000   0.875000 0
  0.875000   0.625000 0
  0.500000   0.750000 0
  0.750000   0.625000 0
  0.250000   0.000000 0
  0.375000   0.750000 0
  0.750000   0.875000 0
  0.625000   0.125000 0
  0.250000   0.250000 0
  0.375000   1.000000 0
  0.375000   0.250000 0
  0.000000   0.375000 0
  0.500000   1.000000 0
  0.875000   0.750000 0
  0.750000   0.000000 0
  0.375000   0.125000 0
  0.500000   0.875000 0
  0.000000   0.000000 0
  0.125000   0.750000 0
  0.500000   0.625000 0
  0.125000   0.250000 0
  0.500000   0.125000 0
  0.250000   1.000000 0
  0.250000   0.125000 0
  0.000000   1.000000 0
  0.375000   0.875000 0
  0.000000   0.750000 0
  0.375000   0.625000 0
  0.000000   0.250000 0
  0.125000   1.000000 0
  1.000000   0.375000 0
  0.500000   0.500000 0
  0.875000   0.375000 0
CELLS 64 320
4 56 71 58 63
4 27 58 69 63
4 41 69 32 63
4 76 33 68 40
4 27 44 58 37
4 79 31 44 37
4 56 38 68 21
4 56 58 38 37
4 52 32 71 63
4 47 38 31 37
4 76 68 59 21
4 22 59 43 21
4 65 45 33 40
4 47 43 38 21
4 52 71 45 40
4 56 68 71 40
4 74 30 66 23
4 46 66 29 23
4 22 43 30 23
4 72 48 77 34
4 46 53 42 73
4 50 64 53 73
4 70 42 57 73
4 74 66 48 34
4 46 42 66 34
4 47 29 43 23
4 70 77 42 34
4 60 57 64 73
4 79 67 31 75
4 47 31 29 75
4 50 53 67 75
4 46 29 53 75
4 10 78 6 80
4 36 6 1 80
4 15 1 12 80
4 36 4 6 26
4 14 12 78 80
4 2 17 9 26
4 36 18 4 55
4 15 28 1 11
4 62 4 20 55
4 10 6 17 26
4 27 18 44 11
4 62 9 4 26
4 27 69 18 55
4 36 1 18 11
4 41 20 69 55
4 79 44 28 11
4 16 24 54 7
4 19 54 39 7
4 50 39 64 7
4 8 25 61 3
4 60 64 24 7
4 79 28 67 13
4 19 51 61 49
4 8 61 0 49
4 15 51 28 13
4 19 39 51 13
4 50 67 39 13
4 19 61 54 3
4 14 0 12 49
4 5 35 25 3
4 15 12 51 49
4 16 54 35 3
CELL_TYPES 64
8
8
8
8
8
8
8
8
8
8
8
8
8
8
8
8
8
8
8
8
8
8
8
8
8
8
8
8
8
8
8
8
8
8
8
8
8
8
8
8
8
8
8
8
8
8
8
8
8
8
8
8
8
8
8
8
8
8
8
8
8
8
8
8
CELL_DATA 64
VECTORS vector_value float
-0.309214 -0.415776 0
-0.0557784 -0.283054 0
-0.0629985 -0.261277 0
0.218491 -1.81349 0
-0.224643 -0.933528 0
-0.119378 -0.247008 0
-0.047573 -0.402606 0
-0.0510326 -0.406365 0
-0.111746 -0.245153 0
0.0565538 -0.246602 0
-0.164604 -1.84661 0
-0.359468 -1.13965 0
0.142152 -1.22476 0
-0.361613 -1.29938 0
0.158364 -1.60874 0
-0.0909291 -0.716737 0
0.128476 -1.04447 0
0.0375351 -1.02487 0
0.0224486 -0.760023 0
0.115745 -0.796941 0
-0.0613741 -0.469648 0
0.163821 -0.805411 0
0.389724 -1.13261 0
-0.19193 -1.14781 0
-0.403767 -0.752118 0
-0.112342 -1.60019 0
0.317591 -0.732941 0
0.603626 -1.53276 0
-0.0360627 -0.104797 0
-0.128115 -0.317472 0
0.0116256 -0.216118 0
-0.259494 -0.543126 0
-0.117554 -0.43005 0
-0.539834 -1.35697 0
0.0973706 -1.04488 0
-0.474257 -0.374474 0
-0.00806069 -0.591431 0
-0.00692486 -0.0958728 0
-0.969857 -1.53723 0
-0.495693 -1.78559 0
-0.0794976 -1.62201 0
-0.0851186 -0.206169 0
-0.328797 -1.94845 0
-0.022671 -0.0896041 0
-0.103775 -2.65307 0
-0.149466 -0.675418 0
-0.0667032 -2.85258 0
-0.844514 -1.64546 0
-0.471355 -0.931406 0
0.547678 -1.54133 0
1.05022 -1.61128 0
-0.263373 -0.386746 0
-0.166263 -1.24586 0
-0.292623 -0.823051 0
0.0169852 -1.63571 0
-0.0262827 -0.208762 0
-0.488928 -2.76953 0
0.590354 -2.54679 0
0.475114 -0.780145 0
-0.214561 -1.28565 0
0.145212 -0.399513 0
-0.0911162 -0.894973 0
0.0628742 -1.22542 0
-0.28901 -0.732511 0
