# vtk DataFile Version 2.0
Unstructured Grid by M++
ASCII
DATASET UNSTRUCTURED_GRID
POINTS 4225 float
  0.921875   0.593750 0
  0.921875   0.609375 0
  0.656250   0.609375 0
  0.671875   0.609375 0
  0.656250   0.546875 0
  0.671875   0.546875 0
  0.656250   0.562500 0
  0.656250   0.578125 0
  0.656250   0.593750 0
  0.671875   0.593750 0
  0.671875   0.562500 0
  0.671875   0.578125 0
  0.671875   0.625000 0
  0.671875   0.640625 0
  0.906250   0.578125 0
  0.890625   0.578125 0
  0.546875   0.515625 0
  1.000000   0.890625 0
  0.515625   0.640625 0
  0.515625   0.625000 0
  1.000000   0.875000 0
  0.515625   0.656250 0
  0.515625   0.687500 0
  0.515625   0.671875 0
  1.000000   0.921875 0
  0.546875   0.531250 0
  0.546875   0.546875 0
  0.546875   0.562500 0
  0.796875   0.531250 0
  0.953125   0.890625 0
  0.953125   0.875000 0
  0.953125   0.843750 0
  0.953125   0.828125 0
  0.953125   0.812500 0
  0.531250   0.562500 0
  0.531250   0.546875 0
  0.515625   0.562500 0
  0.515625   0.546875 0
  1.000000   0.812500 0
  0.781250   0.546875 0
  0.765625   0.546875 0
  0.859375   0.921875 0
  0.921875   0.671875 0
  0.609375   0.906250 0
  0.671875   0.656250 0
  0.609375   0.921875 0
  0.671875   0.671875 0
  0.671875   0.984375 0
  0.671875   1.000000 0
  0.906250   0.984375 0
  0.906250   1.000000 0
  0.921875   0.984375 0
  0.921875   1.000000 0
  0.859375   0.609375 0
  1.000000   0.781250 0
  0.515625   0.531250 0
  0.531250   0.531250 0
  0.531250   0.515625 0
  0.515625   0.515625 0
  1.000000   0.750000 0
  0.765625   0.531250 0
  0.781250   0.531250 0
  0.781250   0.515625 0
  0.765625   0.515625 0
  0.859375   0.875000 0
  0.921875   0.625000 0
  0.859375   0.890625 0
  0.921875   0.640625 0
  0.671875   0.968750 0
  0.671875   0.953125 0
  0.921875   0.968750 0
  0.921875   0.953125 0
  0.859375   0.593750 0
  0.859375   0.578125 0
  0.875000   0.578125 0
  0.828125   0.890625 0
  0.890625   0.640625 0
  0.593750   0.890625 0
  0.656250   0.640625 0
  0.593750   0.875000 0
  0.656250   0.625000 0
  0.578125   0.890625 0
  0.640625   0.640625 0
  0.578125   0.875000 0
  0.640625   0.625000 0
  0.968750   0.890625 0
  0.984375   0.890625 0
  0.968750   0.812500 0
  0.968750   0.828125 0
  0.984375   0.812500 0
  0.984375   0.828125 0
  1.000000   0.828125 0
  0.656250   0.953125 0
  0.640625   0.953125 0
  0.890625   0.968750 0
  0.906250   0.968750 0
  0.906250   0.953125 0
  0.890625   0.953125 0
  0.531250   0.703125 0
  0.531250   0.718750 0
  0.546875   0.718750 0
  0.546875   0.703125 0
  0.593750   0.578125 0
  0.562500   0.578125 0
  0.578125   0.578125 0
  0.843750   0.578125 0
  0.828125   0.578125 0
  0.828125   0.812500 0
  0.890625   0.562500 0
  0.828125   0.796875 0
  0.953125   0.906250 0
  0.953125   0.921875 0
  0.531250   0.859375 0
  0.593750   0.609375 0
  0.531250   0.843750 0
  0.593750   0.593750 0
  0.515625   0.843750 0
  0.578125   0.593750 0
  0.515625   0.859375 0
  0.578125   0.609375 0
  0.937500   0.859375 0
  1.000000   0.609375 0
  0.921875   0.859375 0
  0.984375   0.609375 0
  0.937500   0.796875 0
  0.921875   0.796875 0
  0.984375   0.546875 0
  0.562500   0.812500 0
  0.843750   0.796875 0
  0.843750   0.812500 0
  0.859375   0.796875 0
  0.859375   0.812500 0
  1.000000   0.906250 0
  0.984375   0.906250 0
  0.968750   0.906250 0
  0.968750   0.921875 0
  0.984375   0.921875 0
  0.593750   0.921875 0
  0.656250   0.671875 0
  0.593750   0.906250 0
  0.656250   0.656250 0
  0.578125   0.906250 0
  0.640625   0.656250 0
  0.578125   0.921875 0
  0.640625   0.671875 0
  1.000000   0.843750 0
  0.984375   0.843750 0
  0.968750   0.843750 0
  0.968750   0.859375 0
  0.968750   0.875000 0
  1.000000   0.859375 0
  0.984375   0.859375 0
  0.984375   0.875000 0
  0.656250   1.000000 0
  0.656250   0.984375 0
  0.656250   0.968750 0
  0.640625   0.968750 0
  0.640625   1.000000 0
  0.640625   0.984375 0
  0.843750   0.921875 0
  0.906250   0.671875 0
  0.843750   0.906250 0
  0.906250   0.656250 0
  0.828125   0.906250 0
  0.890625   0.656250 0
  0.828125   0.921875 0
  0.890625   0.671875 0
  0.781250   0.859375 0
  0.843750   0.609375 0
  0.781250   0.843750 0
  0.843750   0.593750 0
  0.765625   0.843750 0
  0.828125   0.593750 0
  0.765625   0.859375 0
  0.828125   0.609375 0
  0.968750   0.609375 0
  0.906250   0.859375 0
  0.953125   0.609375 0
  0.890625   0.859375 0
  0.937500   0.609375 0
  0.875000   0.859375 0
  0.562500   0.593750 0
  0.546875   0.593750 0
  0.531250   0.593750 0
  0.531250   0.609375 0
  0.562500   0.609375 0
  0.546875   0.609375 0
  0.609375   0.625000 0
  0.546875   0.875000 0
  0.609375   0.640625 0
  0.546875   0.890625 0
  0.625000   0.640625 0
  0.562500   0.890625 0
  0.625000   0.625000 0
  0.562500   0.875000 0
  0.921875   0.843750 0
  0.984375   0.593750 0
  0.937500   0.843750 0
  1.000000   0.593750 0
  0.921875   0.812500 0
  0.921875   0.828125 0
  0.984375   0.578125 0
  0.937500   0.828125 0
  1.000000   0.578125 0
  0.937500   0.812500 0
  1.000000   0.562500 0
  0.578125   0.828125 0
  0.921875   0.781250 0
  0.937500   0.781250 0
  1.000000   0.531250 0
  0.921875   0.765625 0
  0.984375   0.515625 0
  0.937500   0.765625 0
  0.625000   0.656250 0
  0.562500   0.906250 0
  0.609375   0.656250 0
  0.546875   0.906250 0
  0.625000   0.671875 0
  0.562500   0.921875 0
  0.609375   0.671875 0
  0.546875   0.921875 0
  0.859375   0.781250 0
  0.859375   0.765625 0
  0.828125   0.671875 0
  0.765625   0.921875 0
  0.828125   0.734375 0
  0.765625   0.984375 0
  0.875000   0.843750 0
  0.937500   0.593750 0
  0.890625   0.843750 0
  0.953125   0.593750 0
  0.906250   0.843750 0
  0.968750   0.593750 0
  0.906250   0.828125 0
  0.968750   0.578125 0
  0.937500   0.578125 0
  0.953125   0.578125 0
  0.906250   0.765625 0
  0.875000   0.765625 0
  0.953125   0.515625 0
  0.531250   0.781250 0
  0.671875   0.890625 0
  0.531250   0.921875 0
  0.953125   0.656250 0
  0.828125   0.781250 0
  0.843750   0.781250 0
  0.703125   0.984375 0
  0.687500   0.984375 0
  0.843750   0.875000 0
  0.906250   0.625000 0
  0.671875   0.781250 0
  0.734375   0.531250 0
  0.906250   0.609375 0
  0.671875   0.765625 0
  0.734375   0.515625 0
  0.906250   0.593750 0
  0.890625   0.593750 0
  0.875000   0.593750 0
  0.828125   0.875000 0
  0.890625   0.625000 0
  0.656250   0.781250 0
  0.718750   0.531250 0
  0.890625   0.609375 0
  0.656250   0.765625 0
  0.718750   0.515625 0
  0.875000   0.609375 0
  0.640625   0.765625 0
  0.703125   0.515625 0
  0.812500   0.921875 0
  0.875000   0.671875 0
  0.812500   0.875000 0
  0.875000   0.625000 0
  0.640625   0.781250 0
  0.703125   0.531250 0
  0.812500   0.515625 0
  0.750000   0.828125 0
  0.812500   0.578125 0
  0.687500   1.000000 0
  0.937500   0.656250 0
  0.875000   0.906250 0
  0.531250   0.656250 0
  0.890625   0.906250 0
  0.906250   0.906250 0
  0.562500   0.656250 0
  0.906250   0.890625 0
  0.562500   0.640625 0
  0.968750   0.625000 0
  0.906250   0.875000 0
  0.562500   0.625000 0
  0.937500   0.640625 0
  0.875000   0.890625 0
  0.890625   0.890625 0
  0.546875   0.640625 0
  0.953125   0.625000 0
  0.890625   0.875000 0
  0.546875   0.625000 0
  0.546875   0.687500 0
  0.890625   0.937500 0
  0.937500   0.625000 0
  0.875000   0.875000 0
  0.531250   0.625000 0
  0.531250   0.640625 0
  0.546875   0.656250 0
  0.937500   0.968750 0
  0.687500   0.968750 0
  0.953125   0.968750 0
  0.703125   0.968750 0
  0.968750   0.968750 0
  0.718750   0.968750 0
  0.718750   0.906250 0
  0.968750   0.953125 0
  0.718750   0.953125 0
  0.968750   0.937500 0
  0.859375   0.906250 0
  0.921875   0.656250 0
  0.718750   0.937500 0
  0.828125   0.531250 0
  0.937500   0.953125 0
  0.687500   0.953125 0
  0.953125   0.953125 0
  0.703125   0.953125 0
  0.703125   0.890625 0
  0.843750   0.515625 0
  0.953125   0.937500 0
  0.953125   1.000000 0
  0.703125   0.937500 0
  0.937500   0.937500 0
  0.687500   0.937500 0
  0.703125   0.906250 0
  0.718750   0.890625 0
  0.687500   0.890625 0
  0.687500   0.765625 0
  0.750000   0.515625 0
  0.687500   0.781250 0
  0.750000   0.531250 0
  0.859375   0.937500 0
  0.921875   0.687500 0
  0.687500   0.796875 0
  0.750000   0.546875 0
  0.578125   0.750000 0
  0.515625   1.000000 0
  0.843750   0.765625 0
  0.578125   0.734375 0
  0.515625   0.984375 0
  0.562500   0.734375 0
  0.828125   0.750000 0
  0.765625   1.000000 0
  0.562500   0.750000 0
  0.562500   0.718750 0
  0.578125   0.515625 0
  0.921875   0.703125 0
  0.921875   0.718750 0
  0.593750   0.515625 0
  0.687500   0.875000 0
  0.750000   0.625000 0
  0.578125   0.531250 0
  0.921875   0.750000 0
  0.703125   0.875000 0
  0.765625   0.625000 0
  0.593750   0.531250 0
  0.875000   0.968750 0
  0.937500   0.718750 0
  0.703125   0.828125 0
  0.765625   0.578125 0
  0.937500   0.734375 0
  0.703125   0.812500 0
  0.765625   0.562500 0
  0.890625   0.687500 0
  0.828125   0.937500 0
  0.656250   0.796875 0
  0.718750   0.546875 0
  0.890625   0.718750 0
  0.828125   0.968750 0
  0.906250   0.796875 0
  0.718750   0.828125 0
  0.781250   0.578125 0
  0.890625   0.703125 0
  0.828125   0.953125 0
  0.656250   0.859375 0
  0.906250   0.781250 0
  0.968750   0.531250 0
  0.546875   0.796875 0
  0.671875   0.796875 0
  0.734375   0.546875 0
  0.843750   0.953125 0
  0.906250   0.703125 0
  0.671875   0.875000 0
  0.718750   0.812500 0
  0.781250   0.562500 0
  0.875000   0.812500 0
  0.531250   0.890625 0
  0.593750   0.640625 0
  0.937500   0.890625 0
  0.875000   0.781250 0
  0.609375   0.703125 0
  0.546875   0.953125 0
  0.890625   0.796875 0
  0.625000   0.718750 0
  0.562500   0.968750 0
  0.906250   0.812500 0
  0.734375   0.859375 0
  0.796875   0.609375 0
  0.718750   0.875000 0
  0.781250   0.625000 0
  0.750000   0.859375 0
  0.812500   0.609375 0
  0.812500   0.546875 0
  0.750000   0.812500 0
  0.734375   0.843750 0
  0.796875   0.593750 0
  0.750000   0.843750 0
  0.812500   0.593750 0
[...]
CELL_DATA 4096
VECTORS vector_value float
-0.00562219 -0.0192468 0
-0.00161168 -0.0156183 0
-0.00398409 -0.0215792 0
-0.00702692 -0.0226194 0
-0.000974552 -0.0191231 0
-0.000980494 -0.0215539 0
-0.003997 -0.0211914 0
-0.00398428 -0.0179068 0
0.00127397 -0.0195857 0
0.00125171 -0.0205277 0
0.00251689 -0.0168375 0
0.00171805 -0.0166269 0
-0.000889711 -0.016357 0
0.000969676 -0.0175466 0
0.000433303 -0.015886 0
-0.000320644 -0.0146373 0
0.225034 -0.371918 0
0.0897272 -0.218325 0
0.101049 -0.366814 0
0.192754 -0.481779 0
0.0533882 -0.0859039 0
0.0728287 -0.123396 0
0.126364 -0.251406 0
0.0930268 -0.225244 0
-0.000857676 -0.0676199 0
0.0346257 -0.10037 0
0.0212065 -0.0572468 0
0.00456182 -0.0488795 0
-2.71179 -10.4574 0
-2.61207 -12.646 0
-0.550413 -12.0396 0
-0.620919 -10.6768 0
0.00121463 -0.160414 0
0.0166805 -0.118715 0
-0.0127638 -0.105181 0
-0.0605721 -0.149607 0
-0.578336 -12.8427 0
-1.5184 -15.8267 0
-0.173074 -14.631 0
0.166558 -14.085 0
0.55363 -1.56931 0
0.278773 -1.48308 0
0.129464 -0.628848 0
0.285517 -0.983538 0
-0.25862 -0.146638 0
-0.202899 -0.103745 0
-0.130066 -0.0719374 0
-0.171487 -0.107235 0
-0.0309516 -1.13139 0
-0.411429 -1.33537 0
-0.157599 -0.493024 0
-0.000927223 -0.374631 0
-0.167649 -0.0781729 0
-0.206992 -0.0836441 0
-0.263848 -0.124234 0
-0.132955 -0.128402 0
0.693562 -4.16853 0
-0.771308 -9.76886 0
-1.89201 -10.6409 0
-1.02352 -5.86411 0
-0.140613 -0.0831474 0
-0.105994 -0.0703727 0
-0.120418 -0.158576 0
-0.149474 -0.176112 0
-0.0133125 -0.165047 0
0.0320195 -0.262327 0
0.135202 -0.692668 0
0.129539 -0.529883 0
-0.0394706 -0.0296558 0
-0.0729097 -0.0457965 0
-0.0789022 -0.0496392 0
-0.0780198 -0.0596154 0
-2.65092 -2.65505 0
-2.58971 -2.56311 0
-2.87372 -2.4697 0
-3.3704 -3.23434 0
-0.115902 -0.0683405 0
-0.125624 -0.0757899 0
-0.126041 -0.0750949 0
-0.113692 -0.0900245 0
0.307059 -1.88076 0
0.414058 -1.96359 0
0.850922 -2.98294 0
0.129917 -2.89095 0
1.07735 -4.09933 0
0.652745 -4.12329 0
1.20628 -4.30099 0
1.14625 -3.54077 0
-1.84142 -2.17172 0
-2.22256 -2.15414 0
-2.36304 -2.46025 0
-2.21833 -2.51016 0
-0.0286765 -0.0538134 0
-0.0559703 -0.0595141 0
-0.0480347 -0.0572865 0
-0.0305385 -0.0563498 0
0.827039 -5.6094 0
0.227185 -4.46673 0
0.0844885 -4.33063 0
0.0135582 -5.74173 0
1.1703 -3.39034 0
0.67561 -2.757 0
1.09194 -3.42676 0
1.64123 -4.01585 0
-2.61674 -1.09464 0
-2.43998 -1.78011 0
-1.90509 -1.80124 0
-1.80849 -1.2566 0
-0.0846311 -0.149578 0
-0.0787052 -0.0828094 0
-0.0288409 -0.0705314 0
-0.0422771 -0.125027 0
2.3643 -6.27593 0
0.790026 -7.75495 0
1.38284 -3.66181 0
1.95692 -4.12233 0
0.383547 -10.6428 0
1.14696 -9.28695 0
0.93019 -6.31982 0
-0.0666292 -6.02598 0
-3.02667 -2.15709 0
-2.83093 -2.27736 0
-3.46832 -1.65605 0
-4.1742 -1.82289 0
0.00678488 -0.0989074 0
0.00846753 -0.0922444 0
0.00282764 -0.0717675 0
-0.00750843 -0.0772862 0
0.065081 -0.462216 0
0.195373 -1.44433 0
0.153598 -1.14482 0
0.0446332 -0.436476 0
0.129816 -1.00186 0
0.375677 -2.90721 0
0.562066 -2.00813 0
0.249811 -1.2196 0
-0.0806818 -0.0597971 0
-0.0891331 -0.0481992 0
-0.105761 -0.0600498 0
-0.0816552 -0.0676163 0
-0.181286 -3.07156 0
-0.00262682 -3.57604 0
0.103508 -3.58333 0
-0.00251998 -3.64921 0
0.0354152 -0.0876684 0
0.0188779 -0.0922838 0
0.0280956 -0.126513 0
0.0387336 -0.0870577 0
-0.0407284 -3.57228 0
-0.320868 -3.59527 0
-1.18494 -4.58774 0
-0.194383 -4.33191 0
-0.864178 -2.79829 0
-1.19225 -2.59487 0
-0.81751 -2.66232 0
-0.465321 -3.76828 0
-0.00174907 -0.0159033 0
0.00263358 -0.0175159 0
0.00214286 -0.0114068 0
-0.000292016 -0.0139091 0
-4.7227 -5.9438 0
-3.95778 -5.41282 0
-4.90363 -9.7335 0
-5.86019 -11.1105 0
-0.00795486 -0.0257651 0
-0.000482135 -0.0211819 0
-0.0069173 -0.0222001 0
-0.0213984 -0.0386052 0
-3.04715 -8.22904 0
-2.70448 -5.3557 0
-1.55272 -3.9728 0
-2.82305 -8.18995 0
-0.841083 -3.67144 0
-0.520926 -2.9859 0
-0.489824 -2.42802 0
-0.406997 -3.98299 0
-0.449464 -5.54076 0
-1.23833 -4.37091 0
-1.37824 -4.27202 0
-1.5063 -6.68941 0
0.00362954 -0.0246745 0
0.00228221 -0.0246908 0
-0.0041387 -0.0239713 0
-0.000164429 -0.0304455 0
-4.06765 -9.64776 0
-4.59855 -9.1771 0
-4.02096 -11.896 0
-3.47635 -10.8822 0
-1.87428 -4.69299 0
-1.14805 -4.16022 0
-2.24964 -4.56023 0
-1.95446 -4.83773 0
-0.614406 -2.55254 0
-0.721823 -3.36069 0
-0.0442163 -5.11959 0
-0.076883 -4.60493 0
0.00701212 -0.0154376 0
0.00715448 -0.0199388 0
0.00885712 -0.0248281 0
0.0109232 -0.0264428 0
-5.61977 -12.8181 0
-0.767149 -2.09531 0
-0.046302 -0.027791 0
0.157619 -1.12514 0
-2.06453 -8.34757 0
-0.0403668 -0.0359112 0
-0.0891926 -0.0238573 0
-0.0990905 -0.00974201 0
-0.608369 -0.206202 0
-0.0916594 -0.0116346 0
-0.614464 -0.362286 0
0.0317638 -0.119097 0
0.170384 -1.63438 0
0.0122451 -0.114595 0
0.347876 -0.792087 0
0.0386923 -0.0976654 0
-0.577985 -0.803194 0
0.0299203 -0.0864369 0
-0.500024 -1.0732 0
0.0289077 -0.0760289 0
-0.2206 -0.892232 0
0.0323085 -0.0804497 0
-0.379828 -0.717526 0
-0.351523 -0.122291 0
-0.194646 -0.0309488 0
-0.24611 -0.0416428 0
-0.929023 -0.83078 0
-1.14565 -1.23116 0
-0.255446 -0.0661102 0
-4.18541 -3.12266 0
-0.863231 -0.889732 0
-0.717875 -0.613851 0
-0.115536 -0.160006 0
0.764193 -3.38681 0
-0.0511999 -0.183525 0
0.568027 -2.67966 0
-0.0646961 -0.125167 0
0.803857 -3.46309 0
-0.0607451 -0.0287793 0
-0.251151 -1.83779 0
-0.0465477 -0.0310115 0
-0.653696 -2.12061 0
-0.00956805 -0.0708334 0
-2.12405 -4.54977 0
-0.0058661 -0.0616867 0
-2.47958 -3.90346 0
0.0263257 -0.0500102 0
-0.347696 -0.122911 0
0.0145662 -0.0449145 0
-0.204498 -0.099132 0
0.00280334 -0.0113767 0
-0.0511757 -0.0748118 0
-0.430396 -0.120144 0
0.00194348 -0.0109099 0
-0.083279 -0.0738618 0
0.00340652 -0.0112776 0
-0.0917335 -0.0659824 0
-0.219229 -0.178498 0
0.00657997 -0.0148512 0
-0.0938679 -0.111194 0
-0.0296658 -0.117727 0
-2.29908 -4.48755 0
-0.0161042 -0.0945161 0
-2.24341 -3.60161 0
-0.0137439 -0.0838284 0
-2.8566 -3.68944 0
-0.0455849 -0.0237012 0
-0.132315 -0.0852305 0
-0.0589513 -0.0519003 0
-1.37009 -0.808042 0
-1.94783 -1.23623 0
-0.0334694 -0.0960934 0
-2.80336 -5.06171 0
-0.102247 -0.248514 0
0.342638 -1.91172 0
-0.203245 -0.258235 0
0.608969 -2.70443 0
-0.170662 -0.389579 0
0.0963789 -1.43639 0
-0.177646 -0.522941 0
0.0332179 -0.0787955 0
-0.157239 -0.515529 0
0.0424712 -0.0782811 0
-0.203768 -0.261145 0
0.603185 -3.20168 0
-0.246623 -0.59934 0
0.0373558 -0.0744285 0
-0.300378 -0.801274 0
0.0328095 -0.0776573 0
0.182161 -2.67818 0
-2.12648 -6.47273 0
-0.0309974 -0.0487059 0
-0.0752017 -0.0276552 0
-0.185178 -2.31043 0
-0.106693 -0.0364314 0
-0.194872 -2.46769 0
-0.0936222 -0.0458824 0
-0.0194023 -2.92908 0
-0.3895 -0.180691 0
-0.018485 -0.0455546 0
0.541713 -3.86726 0
-0.336323 -0.1132 0
0.704442 -4.03732 0
-0.0927551 -0.0316093 0
-0.424031 -2.85472 0
-0.380869 -0.113135 0
0.38769 -3.36051 0
-0.0178271 -0.083952 0
0.0164839 -0.0633559 0
-0.525756 -0.249948 0
0.460373 -3.6951 0
-0.0730427 -0.223597 0
0.457592 -1.99712 0
-0.0114243 -0.123709 0
-1.54231 -2.73153 0
-0.0789795 -0.0848352 0
0.0515368 -4.30382 0
0.0292336 -0.0909245 0
-0.933784 -1.18034 0
0.0195901 -0.0533951 0
-0.812479 -0.825509 0
0.00180858 -0.0366817 0
-0.933495 -0.964316 0
0.00910055 -0.144196 0
0.294441 -1.99725 0
-0.0408876 -0.173035 0
0.195058 -1.17683 0
0.0531592 -0.130492 0
0.259076 -0.902344 0
-0.0510843 -0.176152 0
0.0697126 -0.66217 0
-0.0223057 -0.102325 0
-2.39613 -4.76471 0
-0.202695 -0.130484 0
0.0544917 -4.77397 0
1.45808 -13.3221 0
-0.0417543 -0.187255 0
-0.0250767 -0.543985 0
1.87147 -9.44708 0
2.02916 -11.8915 0
-0.0149146 -0.107229 0
-2.31885 -4.35061 0
-0.0635852 -0.201587 0
0.186505 -1.2827 0
1.14927 -9.59391 0
-0.101815 -0.027609 0
-1.50344 -0.883534 0
-0.0614006 -0.0187064 0
-0.726082 -0.22632 0
-0.989075 -0.493668 0
-1.61633 -6.84378 0
-0.948868 -0.451239 0
-1.47972 -9.97754 0
0.00296056 -0.0190156 0
-0.3509 -0.134976 0
-0.00321825 -0.0192423 0
-0.19757 -0.100087 0
0.00454722 -0.0264121 0
-0.196431 -0.0818916 0
0.00190593 -0.010795 0
-0.0995667 -0.0799303 0
0.00148745 -0.00925967 0
-0.0849904 -0.0723233 0
-0.00100164 -0.013195 0
-0.256519 -0.114215 0
0.00134275 -0.00986121 0
-0.0805695 -0.0682643 0
-0.00179708 -0.546001 0
-0.0719118 -0.682287 0
-0.123385 -0.864389 0
-0.0280908 -0.570162 0
-1.07244 -3.70275 0
-0.0275482 -0.0479744 0
-1.09073 -3.32148 0
-0.0122759 -0.0442238 0
-1.50011 -4.81642 0
-0.0117746 -0.0647354 0
-1.93931 -6.02482 0
-0.0300389 -0.0686461 0
-0.0278399 -0.0423893 0
-0.740268 -0.401697 0
-0.326052 -0.0813929 0
-0.0310858 -0.057553 0
-0.435568 -0.180346 0
-1.77995 -2.83344 0
-0.00916402 -0.0416274 0
-2.19138 -2.71984 0
-0.00581648 -0.0496962 0
-0.207977 -0.485505 0
0.0216163 -0.0715631 0
-0.0189159 -0.122872 0
-2.37186 -3.85658 0
-0.105449 -0.12068 0
-0.319727 -3.75219 0
-0.114577 -0.434899 0
0.00719489 -0.0684084 0
-0.213463 -0.828782 0
0.0398403 -0.0942061 0
-0.280989 -0.184584 0
-0.0556449 -3.52594 0
-0.0727021 -0.428903 0
0.0263701 -0.0754472 0
-0.353069 -0.656182 0
0.045659 -0.0772692 0
-0.255514 -0.557882 0
0.0395793 -0.0858342 0
-0.134737 -0.264049 0
0.00405817 -0.0652606 0
-0.344316 -0.974126 0
0.0335796 -0.0797415 0
-2.37139 -2.68148 0
-0.0128238 -0.0372146 0
-1.88416 -2.43112 0
-0.0107136 -0.0329899 0
-2.16728 -2.28448 0
-0.0114472 -0.0321003 0
-2.43872 -2.30312 0
-0.0125859 -0.0291079 0
-1.12979 -2.15977 0
-0.0155656 -0.0327937 0
-1.00259 -2.06102 0
-0.0129772 -0.031099 0
-0.838107 -1.83314 0
-0.0231081 -0.0302976 0
-0.0468853 -0.0301384 0
-0.853395 -1.97047 0
0.00577013 -0.0361431 0
0.000479361 -0.0170891 0
-0.0515472 -0.0302937 0
-0.204842 -2.71169 0
-0.0100936 -0.0165541 0
-0.0283508 -0.0262286 0
-0.682959 -2.80242 0
0.0970604 -0.792509 0
-0.00429458 -0.0131379 0
-0.0292281 -0.0193731 0
-0.560278 -1.89501 0
-0.00894394 -0.0215206 0
-0.00416885 -0.0642974 0
0.00451173 -0.106905 0
0.221772 -2.8005 0
-0.870503 -5.18898 0
-0.0469933 -0.0534008 0
0.0190059 -0.618008 0
-0.00116827 -0.0173664 0
0.000983628 -0.0100782 0
0.0785738 -1.58417 0
-2.35531 -8.38092 0
-0.0191392 -0.0228231 0
0.00345322 -0.00908023 0
0.00156149 -0.0148904 0
0.0208266 -0.0629668 0
0.0267836 -0.0592681 0
0.0397623 -0.0936755 0
0.0446931 -0.423666 0
0.0475175 -0.0749264 0
-0.103198 -0.515048 0
0.046181 -0.0790468 0
0.00772803 -0.702761 0
0.0404143 -0.104875 0
0.139296 -0.595329 0
0.0585686 -0.117654 0
0.0284095 -0.054241 0
-1.54896 -1.64727 0
0.217691 -0.947569 0
0.00273294 -0.00845763 0
-0.014243 -0.0296626 0
-0.0186997 -0.0300243 0
0.00226111 -0.0120378 0
-0.00559006 -0.0409275 0
-1.38472 -3.48357 0
-0.0127886 -0.105469 0
-2.42783 -4.04203 0
-0.0368635 -0.132239 0
0.00521274 -0.0168452 0
0.0165306 -0.0510043 0
-0.93441 -2.29292 0
-0.0235482 -0.0301382 0
-0.0715984 -1.31175 0
-1.44324 -3.50909 0
-1.66074 -6.70196 0
-0.658328 -4.17672 0
0.71402 -3.2076 0
-0.227045 -0.152859 0
-2.04796 -4.26417 0
0.0260224 -0.335361 0
-0.0123376 -0.157877 0
-0.0993385 -2.79553 0
0.0312249 -1.39086 0
-0.608153 -1.63079 0
-0.135469 -0.147594 0
-0.0438687 -0.0258589 0
-0.596998 -2.71712 0
-0.0380795 -0.0579047 0
0.0108901 -0.0394831 0
-3.9526 -3.74113 0
-0.0221247 -0.0782935 0
0.00220837 -0.0162269 0
-0.0186613 -0.0385292 0
0.007479 -0.0404168 0
-0.00178259 -0.0191238 0
0.00688455 -0.0423434 0
0.051625 -0.971625 0
-0.924942 -0.977959 0
-0.7625 -2.43753 0
0.0137684 -0.222298 0
-0.658578 -1.83645 0
-0.188286 -0.22402 0
0.000502388 -0.0317939 0
-0.0391627 -0.0597131 0
0.00838175 -0.0533639 0
-4.2633 -4.4997 0
-0.0267204 -0.0656915 0
0.0131077 -0.562904 0
-0.00696574 -0.034027 0
0.0115573 -0.0424288 0
-0.00751886 -0.0274883 0
0.00459277 -0.0361316 0
-0.773393 -1.97625 0
-0.00524737 -0.116979 0
-1.50005 -7.83458 0
-1.307 -1.96484 0
-0.239137 -2.2 0
-1.26085 -1.224 0
-2.92782 -7.61083 0
0.0212507 -0.750076 0
-0.473549 -3.17265 0
0.524035 -3.06015 0
-0.142787 -0.082442 0
0.0449591 -1.34877 0
-1.07146 -0.992238 0
0.00493163 -0.0481573 0
-1.41255 -1.81532 0
-0.278719 -2.99831 0
0.0287209 -0.0643977 0
0.0536818 -1.92357 0
-0.0250551 -0.0832857 0
0.00248993 -0.0667266 0
0.808996 -3.3721 0
-0.252323 -0.124817 0
-0.348815 -2.12092 0
-1.19186 -1.32713 0
-0.479543 -1.86422 0
-0.0248141 -0.115416 0
0.0270279 -0.178714 0
0.523641 -3.77044 0
-0.20482 -0.0630464 0
-0.117441 -2.26097 0
0.0312912 -1.31765 0
-0.0422702 -1.44127 0
-1.53385 -2.10013 0
-2.78737 -5.21826 0
-0.0343071 -0.0589416 0
0.00259497 -0.0449511 0
0.727877 -3.54655 0
-0.195322 -0.163579 0
-0.485562 -2.12969 0
-0.0554041 -0.184538 0
-2.16639 -6.4577 0
-1.13066 -1.36729 0
-1.20568 -1.60426 0
-5.14391 -7.68198 0
0.00722927 -0.310252 0
-1.12002 -2.92201 0
0.00456889 -0.25143 0
0.521929 -3.11587 0
-0.0582069 -0.0663692 0
-1.08868 -1.20714 0
-0.0411657 -0.0369293 0
-0.499103 -0.217692 0
3.47519 -7.44593 0
-0.189466 -2.36841 0
-4.08501 -3.62109 0
-0.00388836 -0.0905627 0
-0.929821 -1.24753 0
0.0137038 -0.0872008 0
-0.0381671 -0.147236 0
-0.02338 -0.201545 0
-0.517751 -3.36275 0
-0.368646 -2.09408 0
-0.931022 -2.53003 0
-0.00747821 -0.0901343 0
-0.400861 -2.38834 0
-0.439287 -0.239141 0
0.0707147 -0.655031 0
0.236588 -1.55992 0
-3.29043 -2.48259 0
-0.0172045 -0.049867 0
0.00230472 -0.010606 0
-0.0417182 -0.052986 0
0.00244213 -0.0101797 0
-0.019742 -0.046742 0
-3.97673 -4.07469 0
-0.0270953 -0.0802005 0
-0.874623 -1.99215 0
-0.502795 -0.299972 0
-4.00614 -5.42457 0
-0.708546 -2.38827 0
0.00675094 -0.177266 0
0.986819 -3.72468 0
-0.195171 -0.147899 0
-4.11596 -5.03341 0
0.0192349 -0.0325539 0
-3.58702 -3.19866 0
-0.019044 -0.0509672 0
-0.103742 -1.56098 0
-4.35563 -2.31566 0
-0.00862699 -0.0571036 0
-0.222541 -0.972434 0
-0.949045 -3.12122 0
-1.67356 -2.56205 0
-0.0351813 -1.30352 0
-3.67922 -6.23515 0
0.0254138 -0.333685 0
-0.917184 -2.28584 0
-1.27367 -1.6079 0
-0.0152003 -2.80911 0
-0.15381 -0.039204 0
-0.0211344 -1.89738 0
-4.45714 -2.86763 0
0.0075181 -0.128247 0
-0.471622 -1.3894 0
-0.287355 -3.13071 0
-0.0141374 -0.122711 0
-0.017976 -0.113642 0
-0.000312876 -0.295911 0
-0.593613 -2.00282 0
-0.567409 -1.70551 0
-0.582353 -2.10115 0
0.0121713 -0.0605722 0
-0.0389535 -0.0890453 0
-0.00421434 -0.0740242 0
0.420138 -3.50335 0
-0.301741 -0.221511 0
-0.70259 -3.45965 0
-0.445536 -2.41757 0
-0.700952 -2.67051 0
-0.353592 -0.750743 0
-0.0487114 -0.0323099 0
-1.36184 -2.65051 0
-0.0289573 -0.079599 0
0.000942145 -0.0841268 0
2.17727 -5.97922 0
-0.0438437 -0.0471585 0
-0.0252029 -0.137557 0
-0.0357975 -0.269251 0
2.36447 -8.62687 0
-0.0475801 -0.0330585 0
-0.853612 -2.04005 0
1.86428 -6.73036 0
0.00131997 -0.0198262 0
-0.532179 -0.369648 0
-5.71577e-05 -0.0210265 0
-0.370751 -0.273932 0
0.00254206 -0.0199069 0
-0.476816 -0.440008 0
0.00164958 -0.0178032 0
-0.511993 -0.446182 0
0.00111223 -0.0227239 0
-0.966503 -0.934321 0
0.000971406 -0.00973394 0
-0.135125 -0.0994104 0
0.000807932 -0.0150648 0
-0.885963 -0.780007 0
0.00626355 -0.0292783 0
-0.672655 -0.486905 0
-0.0843736 -2.43011 0
-0.0401434 -2.06167 0
0.156672 -2.73053 0
-0.252575 -0.0632433 0
0.0121803 -0.0353036 0
-0.756144 -0.570689 0
-0.000320308 -0.00863015 0
0.0386606 -0.0925599 0
-0.515535 -0.642188 0
0.0314698 -0.0821507 0
-0.663099 -0.596133 0
0.016453 -0.0575689 0
-0.545763 -0.417762 0
0.0309129 -0.0912754 0
-0.406823 -0.462343 0
-1.63632 -4.86649 0
0.860392 -3.04871 0
-0.205214 -0.0954676 0
0.00370009 -0.0810252 0
-0.265903 -0.274943 0
0.308557 -2.76007 0
-0.064579 -0.0449133 0
0.0154495 -0.0794281 0
-0.292974 -0.324254 0
0.00931526 -0.0519771 0
-0.333852 -0.294692 0
-0.455427 -4.50732 0
0.0125344 -0.0318096 0
-0.114755 -2.52992 0
0.241232 -3.13236 0
-0.15788 -0.0547655 0
0.00179263 -0.0428662 0
-0.329541 -0.278893 0
-0.101088 -0.828141 0
-1.14215 -5.78625 0
-0.763757 -2.31211 0
-0.465008 -0.776004 0
-0.0743646 -1.24179 0
-1.18918 -4.52785 0
-0.274034 -2.04565 0
-0.158943 -1.84164 0
-0.373269 -1.66952 0
-0.818302 -2.36158 0
-0.098995 -1.04912 0
-1.21576 -5.4472 0
-0.0468338 -0.525065 0
-0.0222667 -0.186416 0
-0.00173302 -0.00939384 0
-0.0419835 -0.0470299 0
-0.165133 -3.07707 0
-0.00544362 -0.0116226 0
-0.0321677 -0.0447624 0
-0.585841 -2.81597 0
-0.00126537 -0.00676648 0
-0.991046 -3.97662 0
0.122708 -2.66741 0
-0.073108 -0.0371276 0
-3.20417 -8.42927 0
-0.0374709 -0.634759 0
0.120121 -3.11652 0
-0.0643496 -0.0572179 0
-3.3627 -6.72183 0
0.727541 -3.44576 0
-0.0899383 -0.0899622 0
-1.8765 -4.30358 0
-0.0262481 -0.123938 0
-0.761563 -1.72709 0
-0.0331586 -0.121104 0
-0.0583357 -0.652414 0
-1.82227 -6.73833 0
0.0186349 -0.60212 0
-0.379326 -1.29783 0
-0.729616 -2.45885 0
-0.00441317 -0.51362 0
-0.0259819 -0.220415 0
0.0259784 -1.01197 0
-4.25685 -1.9715 0
-0.0388523 -0.706784 0
-0.0657731 -0.26803 0
-0.566512 -1.92029 0
-0.513129 -1.83478 0
0.0485148 -0.723753 0
-0.0573761 -0.229036 0
-0.0239726 -0.812286 0
-3.93547 -3.10874 0
-0.165028 -1.17226 0
-2.79232 -1.14093 0
-0.025989 -0.10224 0
-0.397033 -2.99079 0
0.0089088 -0.135431 0
-0.046914 -2.76116 0
-0.0181156 -0.182083 0
-0.00858144 -3.07367 0
-0.0328579 -0.108938 0
-0.101442 -2.9284 0
0.00293199 -0.00888498 0
-0.0443961 -0.0529066 0
0.0033232 -0.0106865 0
-0.0281385 -0.0388752 0
0.00178097 -0.00890595 0
-0.0668241 -0.0590011 0
0.00211899 -0.0104049 0
-0.085052 -0.0685798 0
-0.559402 -2.59646 0
0.0014579 -0.00987808 0
-0.227261 -0.141578 0
0.0029906 -0.0132967 0
-0.194728 -0.108202 0
-0.562035 -2.71059 0
0.00282243 -0.0165599 0
-0.273156 -0.158009 0
0.000851394 -0.00999928 0
-0.31568 -0.15913 0
-3.3034 -10.2799 0
-3.42792 -8.57362 0
-4.27144 -9.5898 0
-2.33476 -7.87122 0
-0.00401325 -0.0169589 0
-0.00819513 -0.0252348 0
-0.0183011 -0.0266191 0
-0.0106142 -0.0205193 0
0.595876 -16.4906 0
0.67322 -15.1396 0
1.94493 -9.6675 0
2.50785 -11.9502 0
-0.0197043 -0.0467134 0
-1.15392 -2.92081 0
-0.02356 -0.0278557 0
-1.09931 -2.63163 0
-0.0163812 -0.0276531 0
-2.21462 -2.80222 0
-0.00982942 -0.0338021 0
-2.00278 -2.74881 0
0.0956662 -0.625409 0
-0.0262664 -0.137985 0
0.278799 -1.65408 0
-0.0499521 -0.180573 0
0.406368 -1.99512 0
-0.0292177 -0.167995 0
0.228284 -0.681988 0
-0.0130659 -0.122348 0
-0.00895369 -0.0253123 0
-0.0126372 -0.0374475 0
-0.0102152 -0.0326806 0
-0.00760808 -0.0229225 0
-0.0019289 -0.02781 0
0.00548981 -0.0319273 0
0.0103296 -0.0395982 0
-0.000725561 -0.0391325 0
-1.59286 -3.42167 0
-2.36571 -1.04019 0
-1.61181 -3.82744 0
-2.23434 -0.568455 0
-1.5709 -3.95383 0
-1.85018 -0.55078 0
-2.3056 -3.9997 0
-1.64361 -0.772316 0
-0.888435 -3.44088 0
-0.768487 -4.72924 0
-2.16491 -5.33007 0
-1.9975 -3.95826 0
-0.258139 -0.149705 0
-0.264993 -0.145122 0
-0.236581 -0.116288 0
-0.193266 -0.122509 0
-0.0578728 -0.119698 0
0.811806 -3.75981 0
-0.0556945 -0.130626 0
0.296463 -2.98665 0
-0.0394369 -0.179376 0
0.582245 -3.33685 0
-0.0684103 -0.204698 0
0.625741 -2.82431 0
-0.0105524 -0.0587418 0
-0.00523897 -0.0351632 0
-0.0157487 -0.048899 0
-0.0220952 -0.0569916 0
0.00651324 -0.0993795 0
0.0096291 -0.0635534 0
0.0289442 -0.0745497 0
0.0299237 -0.100289 0
-0.129774 -0.0849368 0
0.00547683 -0.0417764 0
-0.106019 -0.0632758 0
-0.108468 -0.0831005 0
-0.149978 -0.124084 0
-0.0176792 -0.0319198 0
-0.0134434 -0.0228257 0
-0.0265298 -0.0276304 0
-0.0379791 -0.0424436 0
-3.43987 -1.21542 0
-0.277335 -1.30791 0
-2.25154 -0.75969 0
-0.65436 -1.99537 0
-1.86543 -0.34906 0
-1.30414 -2.92359 0
-2.88322 -0.837693 0
-0.901023 -2.18777 0
-0.182759 -0.186065 0
0.044591 -0.0758087 0
-0.342271 -0.212339 0
0.0369792 -0.0596989 0
-0.332491 -0.38404 0
0.0490889 -0.0863508 0
-0.219487 -0.394077 0
0.0379885 -0.0708883 0
-0.0589015 -0.227007 0
0.00567006 -0.0789831 0
-0.0790387 -0.211532 0
0.0248702 -0.0832492 0
-0.0714232 -0.359937 0
0.0242607 -0.0713279 0
-0.0886238 -0.359171 0
0.00778008 -0.0800859 0
0.7134 -17.6065 0
2.24873 -14.9133 0
-0.398857 -14.389 0
-0.446157 -18.8978 0
-0.0108286 -0.0235164 0
-2.81814 -3.2767 0
-0.0105414 -0.0203747 0
-2.1107 -2.18145 0
-0.0133483 -0.0199773 0
-3.02049 -2.91716 0
-0.0112482 -0.022629 0
-2.40684 -2.62608 0
-0.773304 -2.12893 0
-0.850528 -0.278241 0
-0.564111 -2.97859 0
-0.921628 -0.291996 0
-1.05585 -2.81981 0
-1.19282 -0.263179 0
-1.20503 -2.67273 0
-1.4589 -0.414487 0
-0.00573488 -0.0181813 0
-1.01777 -1.21484 0
-0.00794073 -0.0260719 0
-1.64765 -1.92018 0
-0.0120299 -0.0236546 0
-2.36015 -2.41509 0
-0.00949002 -0.0228715 0
-1.7164 -1.91654 0
-0.00116183 -0.0157051 0