# vtk DataFile Version 2.0
Unstructured Grid by M++
ASCII
DATASET UNSTRUCTURED_GRID
POINTS 81 float
  1.000000   0.625000 0
  0.750000   0.375000 0
  1.000000   0.000000 0
  0.875000   0.875000 0
  0.750000   0.125000 0
  1.000000   1.000000 0
  0.875000   0.250000 0
  0.625000   0.875000 0
  1.000000   0.750000 0
  0.875000   0.000000 0
  1.000000   0.250000 0
  0.625000   0.375000 0
  0.875000   0.500000 0
  0.625000   0.625000 0
  1.000000   0.500000 0
  0.750000   0.500000 0
  0.750000   1.000000 0
  1.000000   0.125000 0
  0.625000   0.250000 0
  0.750000   0.750000 0
  0.625000   0.000000 0
  0.125000   0.375000 0
  0.000000   0.500000 0
  0.125000   0.625000 0
  0.625000   1.000000 0
  1.000000   0.875000 0
  0.875000   0.125000 0
  0.500000   0.250000 0
  0.625000   0.500000 0
  0.250000   0.625000 0
  0.000000   0.625000 0
  0.375000   0.500000 0
  0.375000   0.000000 0
  0.000000   0.125000 0
  0.125000   0.875000 0
  0.875000   1.000000 0
  0.750000   0.250000 0
  0.375000   0.375000 0
  0.250000   0.375000 0
  0.625000   0.750000 0
  0.125000   0.125000 0
  0.500000   0.000000 0
  0.250000   0.875000 0
  0.125000   0.500000 0
  0.500000   0.375000 0
  0.125000   0.000000 0
  0.250000   0.750000 0
  0.250000   0.500000 0
  0.000000   0.875000 0
  0.875000   0.625000 0
  0.500000   0.750000 0
  0.750000   0.625000 0
  0.250000   0.000000 0
  0.375000   0.750000 0
  0.750000   0.875000 0
  0.625000   0.125000 0
  0.250000   0.250000 0
  0.375000   1.000000 0
  0.375000   0.250000 0
  0.000000   0.375000 0
  0.500000   1.000000 0
  0.875000   0.750000 0
  0.750000   0.000000 0
  0.375000   0.125000 0
  0.500000   0.875000 0
  0.000000   0.000000 0
  0.125000   0.750000 0
  0.500000   0.625000 0
  0.125000   0.250000 0
  0.500000   0.125000 0
  0.250000   1.000000 0
  0.250000   0.125000 0
  0.000000   1.000000 0
  0.375000   0.875000 0
  0.000000   0.750000 0
  0.375000   0.625000 0
  0.000000   0.250000 0
  0.125000   1.000000 0
  1.000000   0.375000 0
  0.500000   0.500000 0
  0.875000   0.375000 0
CELLS 64 320
4 56 71 58 63
4 27 58 69 63
4 41 69 32 63
4 76 33 68 40
4 27 44 58 37
4 79 31 44 37
4 56 38 68 21
4 56 58 38 37
4 52 32 71 63
4 47 38 31 37
4 76 68 59 21
4 22 59 43 21
4 65 45 33 40
4 47 43 38 21
4 52 71 45 40
4 56 68 71 40
4 74 30 66 23
4 46 66 29 23
4 22 43 30 23
4 72 48 77 34
4 46 53 42 73
4 50 64 53 73
4 70 42 57 73
4 74 66 48 34
4 46 42 66 34
4 47 29 43 23
4 70 77 42 34
4 60 57 64 73
4 79 67 31 75
4 47 31 29 75
4 50 53 67 75
4 46 29 53 75
4 10 78 6 80
4 36 6 1 80
4 15 1 12 80
4 36 4 6 26
4 14 12 78 80
4 2 17 9 26
4 36 18 4 55
4 15 28 1 11
4 62 4 20 55
4 10 6 17 26
4 27 18 44 11
4 62 9 4 26
4 27 69 18 55
4 36 1 18 11
4 41 20 69 55
4 79 44 28 11
4 16 24 54 7
4 19 54 39 7
4 50 39 64 7
4 8 25 61 3
4 60 64 24 7
4 79 28 67 13
4 19 51 61 49
4 8 61 0 49
4 15 51 28 13
4 19 39 51 13
4 50 67 39 13
4 19 61 54 3
4 14 0 12 49
4 5 35 25 3
4 15 12 51 49
4 16 54 35 3
CELL_TYPES 64
8
8
8
8
8
8
8
8
8
8
8
8
8
8
8
8
8
8
8
8
8
8
8
8
8
8
8
8
8
8
8
8
8
8
8
8
8
8
8
8
8
8
8
8
8
8
8
8
8
8
8
8
8
8
8
8
8
8
8
8
8
8
8
8
CELL_DATA 64
VECTORS vector_value float
-0.585911 -1.19817 0
-0.435676 -1.66162 0
0.0353215 -1.81909 0
-0.402134 -1.64291 0
-1.11461 -1.42225 0
-0.570164 -1.00623 0
-0.812372 -0.508934 0
-0.572279 -0.815653 0
-0.0451315 -0.781549 0
-0.538755 -0.994746 0
-0.386091 -0.882932 0
-0.057485 -0.270457 0
-0.0311213 -1.93584 0
-0.272573 -0.392888 0
-0.161221 -0.384682 0
-0.544836 -0.303994 0
0.121013 -0.262477 0
0.265969 -0.376438 0
-0.0189652 -0.155699 0
0.201762 -0.702106 0
0.0619929 -0.265806 0
0.373921 -1.08065 0
1.59724 -0.811832 0
0.0999155 -0.507456 0
0.122226 -0.215776 0
-0.0582007 -0.285637 0
0.805959 -0.51325 0
1.71303 -1.60206 0
-0.419995 -0.836146 0
-0.162362 -0.780496 0
-0.0875487 -0.748066 0
0.0263889 -0.379005 0
-0.159768 -0.566718 0
-0.206565 -0.728812 0
-0.15072 -0.470613 0
-0.0572355 -0.976186 0
-0.158109 -0.940651 0
0.0553528 -0.508466 0
-0.287257 -0.995333 0
-0.265238 -1.84903 0
-0.224512 -0.659513 0
0.0246946 -0.349906 0
-1.0975 -1.63575 0
-0.013737 -0.570479 0
-0.165333 -0.871879 0
-0.292181 -1.43895 0
-0.326821 -1.34039 0
-0.588639 -2.07538 0
-0.433178 -0.99761 0
0.395927 -1.68199 0
1.09122 -2.78366 0
-0.094279 -0.99773 0
0.347131 -1.76043 0
-0.531436 -2.05316 0
0.0298721 -0.286544 0
0.0275352 -1.01608 0
-0.294623 -2.39094 0
0.272346 -2.74804 0
0.125555 -2.18336 0
-0.280992 -0.466937 0
-0.01541 -1.05619 0
0.083441 -1.37774 0
0.0200619 -0.441725 0
-0.0492685 -0.23497 0
