# vtk DataFile Version 2.0
Unstructured Grid by M++
ASCII
DATASET UNSTRUCTURED_GRID
POINTS 4225 float
  0.921875   0.593750 0
  0.921875   0.609375 0
  0.656250   0.609375 0
  0.671875   0.609375 0
  0.656250   0.546875 0
  0.671875   0.546875 0
  0.656250   0.562500 0
  0.656250   0.578125 0
  0.656250   0.593750 0
  0.671875   0.593750 0
  0.671875   0.562500 0
  0.671875   0.578125 0
  0.671875   0.625000 0
  0.671875   0.640625 0
  0.906250   0.578125 0
  0.890625   0.578125 0
  0.546875   0.515625 0
  1.000000   0.890625 0
  0.515625   0.640625 0
  0.515625   0.625000 0
  1.000000   0.875000 0
  0.515625   0.656250 0
  0.515625   0.687500 0
  0.515625   0.671875 0
  1.000000   0.921875 0
  0.546875   0.531250 0
  0.546875   0.546875 0
  0.546875   0.562500 0
  0.796875   0.531250 0
  0.953125   0.890625 0
  0.953125   0.875000 0
  0.953125   0.843750 0
  0.953125   0.828125 0
  0.953125   0.812500 0
  0.531250   0.562500 0
  0.531250   0.546875 0
  0.515625   0.562500 0
  0.515625   0.546875 0
  1.000000   0.812500 0
  0.781250   0.546875 0
  0.765625   0.546875 0
  0.859375   0.921875 0
  0.921875   0.671875 0
  0.609375   0.906250 0
  0.671875   0.656250 0
  0.609375   0.921875 0
  0.671875   0.671875 0
  0.671875   0.984375 0
  0.671875   1.000000 0
  0.906250   0.984375 0
  0.906250   1.000000 0
  0.921875   0.984375 0
  0.921875   1.000000 0
  0.859375   0.609375 0
  1.000000   0.781250 0
  0.515625   0.531250 0
  0.531250   0.531250 0
  0.531250   0.515625 0
  0.515625   0.515625 0
  1.000000   0.750000 0
  0.765625   0.531250 0
  0.781250   0.531250 0
  0.781250   0.515625 0
  0.765625   0.515625 0
  0.859375   0.875000 0
  0.921875   0.625000 0
  0.859375   0.890625 0
  0.921875   0.640625 0
  0.671875   0.968750 0
  0.671875   0.953125 0
  0.921875   0.968750 0
  0.921875   0.953125 0
  0.859375   0.593750 0
  0.859375   0.578125 0
  0.875000   0.578125 0
  0.828125   0.890625 0
  0.890625   0.640625 0
  0.593750   0.890625 0
  0.656250   0.640625 0
  0.593750   0.875000 0
  0.656250   0.625000 0
  0.578125   0.890625 0
  0.640625   0.640625 0
  0.578125   0.875000 0
  0.640625   0.625000 0
  0.968750   0.890625 0
  0.984375   0.890625 0
  0.968750   0.812500 0
  0.968750   0.828125 0
  0.984375   0.812500 0
  0.984375   0.828125 0
  1.000000   0.828125 0
  0.656250   0.953125 0
  0.640625   0.953125 0
  0.890625   0.968750 0
  0.906250   0.968750 0
  0.906250   0.953125 0
  0.890625   0.953125 0
  0.531250   0.703125 0
  0.531250   0.718750 0
  0.546875   0.718750 0
  0.546875   0.703125 0
  0.593750   0.578125 0
  0.562500   0.578125 0
  0.578125   0.578125 0
  0.843750   0.578125 0
  0.828125   0.578125 0
  0.828125   0.812500 0
  0.890625   0.562500 0
  0.828125   0.796875 0
  0.953125   0.906250 0
  0.953125   0.921875 0
  0.531250   0.859375 0
  0.593750   0.609375 0
  0.531250   0.843750 0
  0.593750   0.593750 0
  0.515625   0.843750 0
  0.578125   0.593750 0
  0.515625   0.859375 0
  0.578125   0.609375 0
  0.937500   0.859375 0
  1.000000   0.609375 0
  0.921875   0.859375 0
  0.984375   0.609375 0
  0.937500   0.796875 0
  0.921875   0.796875 0
  0.984375   0.546875 0
  0.562500   0.812500 0
  0.843750   0.796875 0
  0.843750   0.812500 0
  0.859375   0.796875 0
  0.859375   0.812500 0
  1.000000   0.906250 0
  0.984375   0.906250 0
  0.968750   0.906250 0
  0.968750   0.921875 0
  0.984375   0.921875 0
  0.593750   0.921875 0
  0.656250   0.671875 0
  0.593750   0.906250 0
  0.656250   0.656250 0
  0.578125   0.906250 0
  0.640625   0.656250 0
  0.578125   0.921875 0
  0.640625   0.671875 0
  1.000000   0.843750 0
  0.984375   0.843750 0
  0.968750   0.843750 0
  0.968750   0.859375 0
  0.968750   0.875000 0
  1.000000   0.859375 0
  0.984375   0.859375 0
  0.984375   0.875000 0
  0.656250   1.000000 0
  0.656250   0.984375 0
  0.656250   0.968750 0
  0.640625   0.968750 0
  0.640625   1.000000 0
  0.640625   0.984375 0
  0.843750   0.921875 0
  0.906250   0.671875 0
  0.843750   0.906250 0
  0.906250   0.656250 0
  0.828125   0.906250 0
  0.890625   0.656250 0
  0.828125   0.921875 0
  0.890625   0.671875 0
  0.781250   0.859375 0
  0.843750   0.609375 0
  0.781250   0.843750 0
  0.843750   0.593750 0
  0.765625   0.843750 0
  0.828125   0.593750 0
  0.765625   0.859375 0
  0.828125   0.609375 0
  0.968750   0.609375 0
  0.906250   0.859375 0
  0.953125   0.609375 0
  0.890625   0.859375 0
  0.937500   0.609375 0
  0.875000   0.859375 0
  0.562500   0.593750 0
  0.546875   0.593750 0
  0.531250   0.593750 0
  0.531250   0.609375 0
  0.562500   0.609375 0
  0.546875   0.609375 0
  0.609375   0.625000 0
  0.546875   0.875000 0
  0.609375   0.640625 0
  0.546875   0.890625 0
  0.625000   0.640625 0
  0.562500   0.890625 0
  0.625000   0.625000 0
  0.562500   0.875000 0
  0.921875   0.843750 0
  0.984375   0.593750 0
  0.937500   0.843750 0
  1.000000   0.593750 0
  0.921875   0.812500 0
  0.921875   0.828125 0
  0.984375   0.578125 0
  0.937500   0.828125 0
  1.000000   0.578125 0
  0.937500   0.812500 0
  1.000000   0.562500 0
  0.578125   0.828125 0
  0.921875   0.781250 0
  0.937500   0.781250 0
  1.000000   0.531250 0
  0.921875   0.765625 0
  0.984375   0.515625 0
  0.937500   0.765625 0
  0.625000   0.656250 0
  0.562500   0.906250 0
  0.609375   0.656250 0
  0.546875   0.906250 0
  0.625000   0.671875 0
  0.562500   0.921875 0
  0.609375   0.671875 0
  0.546875   0.921875 0
  0.859375   0.781250 0
  0.859375   0.765625 0
  0.828125   0.671875 0
  0.765625   0.921875 0
  0.828125   0.734375 0
  0.765625   0.984375 0
  0.875000   0.843750 0
  0.937500   0.593750 0
  0.890625   0.843750 0
  0.953125   0.593750 0
  0.906250   0.843750 0
  0.968750   0.593750 0
  0.906250   0.828125 0
  0.968750   0.578125 0
  0.937500   0.578125 0
  0.953125   0.578125 0
  0.906250   0.765625 0
  0.875000   0.765625 0
  0.953125   0.515625 0
  0.531250   0.781250 0
  0.671875   0.890625 0
  0.531250   0.921875 0
  0.953125   0.656250 0
  0.828125   0.781250 0
  0.843750   0.781250 0
  0.703125   0.984375 0
  0.687500   0.984375 0
  0.843750   0.875000 0
  0.906250   0.625000 0
  0.671875   0.781250 0
  0.734375   0.531250 0
  0.906250   0.609375 0
  0.671875   0.765625 0
  0.734375   0.515625 0
  0.906250   0.593750 0
  0.890625   0.593750 0
  0.875000   0.593750 0
  0.828125   0.875000 0
  0.890625   0.625000 0
  0.656250   0.781250 0
  0.718750   0.531250 0
  0.890625   0.609375 0
  0.656250   0.765625 0
  0.718750   0.515625 0
  0.875000   0.609375 0
  0.640625   0.765625 0
  0.703125   0.515625 0
  0.812500   0.921875 0
  0.875000   0.671875 0
  0.812500   0.875000 0
  0.875000   0.625000 0
  0.640625   0.781250 0
  0.703125   0.531250 0
  0.812500   0.515625 0
  0.750000   0.828125 0
  0.812500   0.578125 0
  0.687500   1.000000 0
  0.937500   0.656250 0
  0.875000   0.906250 0
  0.531250   0.656250 0
  0.890625   0.906250 0
  0.906250   0.906250 0
  0.562500   0.656250 0
  0.906250   0.890625 0
  0.562500   0.640625 0
  0.968750   0.625000 0
  0.906250   0.875000 0
  0.562500   0.625000 0
  0.937500   0.640625 0
  0.875000   0.890625 0
  0.890625   0.890625 0
  0.546875   0.640625 0
  0.953125   0.625000 0
  0.890625   0.875000 0
  0.546875   0.625000 0
  0.546875   0.687500 0
  0.890625   0.937500 0
  0.937500   0.625000 0
  0.875000   0.875000 0
  0.531250   0.625000 0
  0.531250   0.640625 0
  0.546875   0.656250 0
  0.937500   0.968750 0
  0.687500   0.968750 0
  0.953125   0.968750 0
  0.703125   0.968750 0
  0.968750   0.968750 0
  0.718750   0.968750 0
  0.718750   0.906250 0
  0.968750   0.953125 0
  0.718750   0.953125 0
  0.968750   0.937500 0
  0.859375   0.906250 0
  0.921875   0.656250 0
  0.718750   0.937500 0
  0.828125   0.531250 0
  0.937500   0.953125 0
  0.687500   0.953125 0
  0.953125   0.953125 0
  0.703125   0.953125 0
  0.703125   0.890625 0
  0.843750   0.515625 0
  0.953125   0.937500 0
  0.953125   1.000000 0
  0.703125   0.937500 0
  0.937500   0.937500 0
  0.687500   0.937500 0
  0.703125   0.906250 0
  0.718750   0.890625 0
  0.687500   0.890625 0
  0.687500   0.765625 0
  0.750000   0.515625 0
  0.687500   0.781250 0
  0.750000   0.531250 0
  0.859375   0.937500 0
  0.921875   0.687500 0
  0.687500   0.796875 0
  0.750000   0.546875 0
  0.578125   0.750000 0
  0.515625   1.000000 0
  0.843750   0.765625 0
  0.578125   0.734375 0
  0.515625   0.984375 0
  0.562500   0.734375 0
  0.828125   0.750000 0
  0.765625   1.000000 0
  0.562500   0.750000 0
  0.562500   0.718750 0
  0.578125   0.515625 0
  0.921875   0.703125 0
  0.921875   0.718750 0
  0.593750   0.515625 0
  0.687500   0.875000 0
  0.750000   0.625000 0
  0.578125   0.531250 0
  0.921875   0.750000 0
  0.703125   0.875000 0
  0.765625   0.625000 0
  0.593750   0.531250 0
  0.875000   0.968750 0
  0.937500   0.718750 0
  0.703125   0.828125 0
  0.765625   0.578125 0
  0.937500   0.734375 0
  0.703125   0.812500 0
  0.765625   0.562500 0
  0.890625   0.687500 0
  0.828125   0.937500 0
  0.656250   0.796875 0
  0.718750   0.546875 0
  0.890625   0.718750 0
  0.828125   0.968750 0
  0.906250   0.796875 0
  0.718750   0.828125 0
  0.781250   0.578125 0
  0.890625   0.703125 0
  0.828125   0.953125 0
  0.656250   0.859375 0
  0.906250   0.781250 0
  0.968750   0.531250 0
  0.546875   0.796875 0
  0.671875   0.796875 0
  0.734375   0.546875 0
  0.843750   0.953125 0
  0.906250   0.703125 0
  0.671875   0.875000 0
  0.718750   0.812500 0
  0.781250   0.562500 0
  0.875000   0.812500 0
  0.531250   0.890625 0
  0.593750   0.640625 0
  0.937500   0.890625 0
  0.875000   0.781250 0
  0.609375   0.703125 0
  0.546875   0.953125 0
  0.890625   0.796875 0
  0.625000   0.718750 0
  0.562500   0.968750 0
  0.906250   0.812500 0
  0.734375   0.859375 0
  0.796875   0.609375 0
  0.718750   0.875000 0
  0.781250   0.625000 0
  0.750000   0.859375 0
  0.812500   0.609375 0
  0.812500   0.546875 0
  0.750000   0.812500 0
  0.734375   0.843750 0
  0.796875   0.593750 0
  0.750000   0.843750 0
  0.812500   0.593750 0
[...]
CELL_DATA 4096
VECTORS vector_value float
0.164309 -0.393673 0
0.158616 -0.492804 0
0.23162 -0.708454 0
0.248073 -0.671297 0
0.0817651 -0.0905743 0
0.129783 -0.225973 0
0.10159 -0.188076 0
0.0815949 -0.0767202 0
0.0309552 -0.225697 0
0.0645177 -0.216761 0
0.0730819 -0.140381 0
0.0225074 -0.146284 0
0.250646 -1.00014 0
0.0925418 -0.472598 0
0.117932 -0.674391 0
0.11183 -0.92377 0
-0.0223412 -1.13186 0
0.0616622 -1.2103 0
0.113477 -1.1141 0
-0.00930062 -0.964137 0
-0.0368723 -1.13589 0
-0.0447476 -1.08703 0
-0.0474948 -1.31049 0
-0.0294177 -1.22724 0
-0.0502052 -0.453099 0
-0.0623684 -0.744225 0
-0.0322518 -0.712404 0
-0.0268977 -0.521144 0
2.04595 -3.87777 0
1.94417 -3.17557 0
0.862398 -4.37872 0
0.871813 -5.95203 0
0.110724 -0.910548 0
-0.00476892 -0.727678 0
-0.046432 -0.480137 0
-0.00118997 -0.49669 0
0.797366 -2.62596 0
2.21136 -2.40726 0
1.56412 -1.39348 0
0.481357 -1.36947 0
0.292721 -0.877592 0
0.484141 -1.10744 0
0.696518 -1.5244 0
0.544989 -1.39343 0
0.0330887 -0.119572 0
0.0114329 -0.0523652 0
0.0344726 -0.0785017 0
0.051963 -0.122299 0
3.29941 -2.3165 0
4.2362 -3.14538 0
3.84922 -3.45215 0
4.08222 -4.17188 0
-0.0231557 -0.321607 0
0.016993 -0.310252 0
0.0254809 -0.324091 0
-0.000489468 -0.281621 0
0.447787 -0.420868 0
0.374149 -0.299505 0
0.976868 -0.50039 0
1.22744 -0.583579 0
0.174505 -0.308991 0
0.242382 -0.323332 0
0.265281 -0.359855 0
0.17011 -0.352627 0
0.0755924 -4.63562 0
0.0401276 -4.63601 0
-0.163374 -2.97521 0
0.225028 -2.97337 0
-0.0534459 -0.188288 0
-0.00370611 -0.164818 0
0.0105344 -0.103311 0
-0.0541961 -0.132957 0
0.486651 -0.308398 0
0.486418 -0.260415 0
0.465315 -0.35034 0
0.466383 -0.391429 0
0.18891 -0.278665 0
0.21838 -0.323908 0
0.160441 -0.300684 0
0.120161 -0.264461 0
1.48131 -0.802907 0
0.67245 -0.717613 0
0.472878 -0.558767 0
1.54999 -0.737788 0
0.111617 -0.540346 0
0.0417137 -0.539153 0
0.0514487 -0.390915 0
0.0740419 -0.433691 0
0.649159 -0.61078 0
0.693969 -0.399925 0
0.522781 -0.463879 0
0.378724 -0.470406 0
0.443151 -0.375745 0
0.266355 -0.343807 0
0.199531 -0.349327 0
0.376736 -0.52185 0
0.0556391 -0.395613 0
-0.0143399 -0.615166 0
-0.0491529 -0.836127 0
0.0366653 -0.408392 0
0.277531 -0.568865 0
0.306582 -0.534196 0
0.212589 -0.467828 0
0.19779 -0.56613 0
0.366147 -0.407598 0
0.396325 -0.25805 0
0.561129 -0.644536 0
0.239271 -0.504908 0
0.525519 -0.583685 0
0.291738 -0.352911 0
0.676621 -0.580915 0
0.719083 -0.671253 0
0.0982347 -0.223226 0
0.213497 -0.253523 0
0.247925 -0.348606 0
0.122787 -0.30736 0
0.0194963 -0.144627 0
0.0517991 -0.190073 0
0.0610821 -0.324868 0
0.0393884 -0.329874 0
0.479585 -0.282114 0
0.523617 -0.298423 0
0.483286 -0.357547 0
0.61626 -0.340185 0
0.209362 -0.0257497 0
0.214611 -0.0879151 0
0.162606 -0.0509623 0
0.331873 -0.0479081 0
1.13018 -1.76854 0
0.914041 -1.39362 0
1.52298 -1.42584 0
2.73803 -3.46887 0
-0.0567095 -1.17713 0
0.0126136 -0.731521 0
0.116041 -0.748697 0
0.154778 -1.09714 0
0.0436827 -0.098113 0
0.0576206 -0.144553 0
0.149846 -0.246991 0
0.0737162 -0.156125 0
-0.00254682 -0.0478292 0
-0.00907688 -0.0425201 0
-0.0101793 -0.0269457 0
-0.00924652 -0.0302974 0
0.131633 -0.0259489 0
0.148899 -0.0349203 0
0.184296 -0.00997386 0
0.174171 -0.019086 0
-0.014453 -0.0315308 0
-0.0139172 -0.0351031 0
-0.011956 -0.0289526 0
-0.0173129 -0.0342096 0
0.00127188 -0.0488797 0
0.0174742 -0.0745032 0
0.0062346 -0.0569712 0
-0.0030985 -0.0361338 0
-0.0490825 -0.194435 0
-0.0364234 -0.172782 0
-0.0295704 -0.170428 0
-0.0449318 -0.147445 0
1.71338 -1.99459 0
1.67399 -2.46384 0
1.78398 -3.05662 0
2.28857 -3.09533 0
-0.0481161 -0.177869 0
-0.0442469 -0.161541 0
-0.0330639 -0.194635 0
-0.0495426 -0.158501 0
2.11396 -2.89557 0
1.98666 -2.876 0
2.72133 -2.9352 0
2.40324 -2.68064 0
0.00834548 -0.118266 0
-0.00221392 -0.0795918 0
0.00503837 -0.087276 0
0.00679881 -0.123098 0
0.0383375 -0.100736 0
0.0275188 -0.106641 0
0.043775 -0.111618 0
0.0750273 -0.132085 0
-0.0565113 -0.32363 0
-0.0385616 -0.21055 0
-0.0401697 -0.209299 0
-0.025376 -0.282032 0
1.95658 -2.82472 0
1.5835 -3.13806 0
2.11574 -3.06446 0
2.10349 -2.60795 0
-0.00347777 -0.0630201 0
-0.00708877 -0.0727552 0
0.0103487 -0.0977668 0
0.0062205 -0.0733762 0
0.0154214 -0.0936946 0
0.0180131 -0.0883171 0
0.018129 -0.0974512 0
0.00804143 -0.110408 0
-0.0205051 -0.196418 0
-0.0327941 -0.182106 0
-0.0109537 -0.340601 0
0.0357144 -0.243293 0
1.94333 -2.74207 0
0.0108493 -0.0729786 0
0.458482 -0.623157 0
-0.189173 -1.28206 0
1.70352 -2.7626 0
0.0959321 -0.26951 0
0.410857 -0.437529 0
0.388459 -0.584686 0
0.368107 -0.522953 0
0.370868 -0.440301 0
0.28671 -0.593867 0
0.229828 0.00750753 0
-0.291 -0.746931 0
0.356982 -0.05486 0
-0.150402 -1.23794 0
0.0998189 -0.0612342 0
-0.220977 -0.50146 0
0.158622 -0.0726296 0
-0.21359 -0.56038 0
0.126613 -0.0424106 0
-0.170601 -0.733175 0
0.10848 -0.0606831 0
-0.0901505 -0.610144 0
0.307344 -0.638897 0
0.388162 -0.379896 0
0.406601 -0.593524 0
0.277566 -0.805906 0
0.282313 -0.750837 0
0.351474 -0.375947 0
1.13725 -1.13892 0
0.260299 -0.857927 0
0.353863 -0.846658 0
0.507021 -0.120649 0
-0.0861592 -0.353246 0
0.456498 -0.109661 0
-0.0861629 -0.478141 0
0.429241 -0.0505218 0
-0.0849671 -0.359363 0
0.361158 -0.131116 0
-0.042518 -0.121166 0
0.393627 -0.403674 0
0.000408304 -0.119822 0
1.14488 -3.35169 0
0.390701 -0.347169 0
1.59411 -3.96335 0
0.360396 -0.36219 0
0.41898 -1.03704 0
0.0859659 -0.352863 0
0.119819 -1.58816 0
0.139942 -0.30833 0
0.907179 -1.41528 0
-0.0285948 -0.276563 0
0.0726599 -0.297859 0
0.713758 -1.51891 0
-0.0220723 -0.258825 0
0.913061 -1.92657 0
-0.0362158 -0.297553 0
0.146293 -0.357154 0
0.948813 -1.38709 0
-0.0188457 -0.261643 0
1.96229 -6.43599 0
0.516657 -0.371796 0
1.66356 -4.93009 0
0.455228 -0.288849 0
1.86838 -5.16954 0
0.431909 -0.365423 0
0.828862 -1.40596 0
1.09741 -1.82975 0
1.04323 -1.94313 0
0.155266 -0.84265 0
0.111022 -0.740936 0
0.86775 -5.49427 0
0.446215 -0.382723 0
0.9477 -0.323338 0
0.0567993 -0.737961 0
0.786158 -0.37594 0
-0.00157918 -0.368258 0
0.930255 -0.488883 0
0.041066 -0.928437 0
0.198667 -0.695235 0
0.0795819 -0.0898731 0
0.334527 -0.67834 0
0.0587582 -0.0997286 0
0.974098 -0.283688 0
-0.0726906 -0.34689 0
0.274757 -0.501123 0
0.0462945 -0.066651 0
0.175842 -0.616456 0
0.0940727 -0.0844494 0
-0.0903832 -0.791998 0
1.82915 -5.41375 0
0.199219 -0.332157 0
0.375819 -0.0327519 0
-0.0368041 -0.101245 0
0.330185 -0.186009 0
-0.0113695 -0.037887 0
0.312422 -0.029049 0
-0.0346142 -0.0833757 0
0.5677 -0.240148 0
0.932097 -1.19666 0
-0.0150362 -0.0317054 0
0.518241 -0.150847 0
-0.014359 -0.0296595 0
0.40645 -0.224669 0
-0.0210558 -0.0615904 0
0.43798 -0.29045 0
-0.0122924 -0.0251208 0
1.07082 -1.12548 0
0.133384 -1.12182 0
0.460869 -0.407923 0
-0.0173237 -0.0251011 0
0.772091 -0.23702 0
-0.0408722 -0.507912 0
1.95114 -5.99276 0
0.225963 -0.261018 0
1.53436 -2.19467 0
0.0275423 -0.131359 0
0.133168 -0.0641469 0
-0.217281 -0.433221 0
0.0849533 -0.0571564 0
-0.259696 -0.447621 0
0.0830982 -0.0543952 0
-0.244021 -0.59791 0
0.295724 -0.00942081 0
-0.137172 -0.64071 0
0.850577 -0.278173 0
0.0680773 -1.03404 0
0.215223 -0.0213971 0
-0.150599 -1.04856 0
0.670489 -0.393661 0
0.0465682 -1.16724 0
1.31211 -3.83093 0
0.183448 -0.198476 0
1.26782 -1.83325 0
-0.000248129 -0.112892 0
-0.000427586 -0.102263 0
0.994243 -0.60716 0
0.161973 -1.24977 0
0.0148005 -0.112722 0
0.00134075 -0.0789519 0
1.28145 -4.35962 0
0.22845 -0.223889 0
0.514877 -0.177697 0
-0.0450168 -0.883326 0
-0.00389183 -0.113925 0
0.643041 -1.0134 0
0.124598 -0.970728 0
0.591355 -0.80538 0
0.213682 -0.693216 0
0.2271 -0.885608 0
3.52506 -0.712788 0
0.126728 -0.912259 0
2.06578 -0.733479 0
0.40529 -2.52076 0
0.0631283 -0.249002 0
0.101493 -2.53632 0
0.0952456 -0.233174 0
0.133982 -2.59687 0
0.121364 -0.250462 0
0.589528 -1.64562 0
-0.056376 -0.240961 0
0.52768 -1.60097 0
-0.0623182 -0.221913 0
0.223615 -2.60521 0
0.0395812 -0.168378 0
0.298607 -0.906855 0
-0.072525 -0.207518 0
-0.578296 -18.5888 0
-0.976149 -8.1103 0
0.0537862 -8.48179 0
0.168532 -18.7493 0
0.0788384 -0.145494 0
0.490767 -1.89223 0
0.137577 -0.231397 0
0.598325 -1.76106 0
0.189507 -0.263754 0
0.979588 -3.43156 0
0.155329 -0.214832 0
0.741214 -2.75065 0
1.21954 -2.2547 0
0.310285 -1.02819 0
0.415559 -0.818458 0
0.735231 -2.32475 0
0.654559 -1.307 0
0.264642 -0.311576 0
0.787631 -2.3698 0
0.390707 -0.387177 0
0.967506 -2.9211 0
0.387247 -0.378485 0
0.026184 -0.0692327 0
1.64442 -5.73121 0
0.291149 -0.311997 0
2.65035 -2.30744 0
0.0154456 -0.208733 0
0.505612 -0.509122 0
0.00239211 -0.123125 0
-0.0761339 -0.688692 0
0.114311 -0.0629452 0
1.51342 -1.04289 0
-0.0215369 -0.282131 0
0.526264 -0.674164 0
0.016017 -0.0939885 0
0.00681464 -0.846667 0
0.117214 -0.11378 0
0.0615488 -0.708411 0
0.103075 -0.106235 0
0.533101 -0.420799 0
0.0125353 -0.072625 0
0.00697924 -0.632859 0
0.0913823 -0.0704735 0
0.280784 -0.343962 0
0.442745 -2.02218 0
0.150046 -0.209844 0
0.33652 -1.55496 0
0.0732227 -0.132574 0
0.234034 -0.952682 0
0.140669 -0.239779 0
0.259033 -0.812526 0
0.044665 -0.10616 0
0.291451 -0.874804 0
0.0692616 -0.134785 0
0.423497 -1.40544 0
0.0457484 -0.120302 0
0.418293 -1.22362 0
0.623052 -0.587205 0
0.00737066 -0.0816282 0
0.934748 -1.19161 0
1.18798 -1.12541 0
0.269688 -0.0411515 0
-0.0656499 -0.206585 0
0.210489 -0.43999 0
0.251355 -0.0902712 0
-0.0410689 -0.203564 0
-0.486259 -4.25058 0
0.284336 -0.622231 0
0.308737 -0.206544 0
-0.0274465 -0.147245 0
0.35367 -0.449041 0
1.05191 -0.821708 0
0.598858 -0.275386 0
-0.127244 -0.819244 0
1.28115 -5.81862 0
0.152895 -0.276374 0
-0.857429 -8.50418 0
0.546109 -0.638623 0
0.395812 -0.713166 0
-0.08207 -1.32704 0
2.12228 -2.34228 0
0.111064 -0.329775 0
0.426621 -0.907745 0
0.645488 -0.891461 0
0.565501 -0.404009 0
0.321242 -0.282159 0
0.235716 -0.122655 0
0.070866 -0.877128 0
0.23396 -0.194283 0
0.0156083 -0.82811 0
0.161783 -0.143521 0
-0.0695217 -0.833725 0
0.121977 -0.0617426 0
-0.0304999 -0.988135 0
0.215773 -0.0945724 0
0.428333 -0.580462 0
0.246623 -0.709969 0
-0.113734 -0.839149 0
0.586159 -1.07382 0
-0.0501535 -0.222517 0
0.349315 -0.47446 0
0.960592 -1.31309 0
-0.0232555 -0.337716 0
0.38898 -0.508108 0
2.47922 -5.22726 0
0.346107 -0.470032 0
0.340396 -4.10865 0
1.01991 -1.59047 0
0.87941 -0.922561 0
0.0240498 -0.0805898 0
0.311829 -0.70399 0
0.32804 -12.897 0
1.32349 -6.28069 0
1.09527 -2.53394 0
0.53166 -5.59722 0
-0.0481236 -0.177153 0
0.789912 -0.0923239 0
0.290233 -1.15051 0
0.546696 -2.86435 0
3.60785 -2.58026 0
1.00082 -7.22802 0
0.76488 -14.3552 0
-0.0187767 -0.350736 0
3.35802 -1.9257 0
0.463996 -0.272773 0
-0.0159464 -0.0781133 0
0.329912 -0.520247 0
0.111397 -0.279647 0
0.414244 -0.348101 0
1.0883 -4.27393 0
1.03314 -1.44755 0
0.584115 -0.742685 0
0.0721457 -0.370623 0
0.848339 -1.03233 0
-0.0168522 -0.519379 0
-0.175717 -0.785035 0
-0.0240838 -0.817315 0
0.42591 -1.32844 0
2.22502 -3.32402 0
0.0495707 -0.687922 0
4.76272 -2.77752 0
1.41063 -1.4951 0
0.53886 -0.663552 0
0.146015 -0.413562 0
0.31223 -0.291057 0
0.29524 -4.253 0
-0.44879 -17.0951 0
0.882655 -1.30285 0
0.0348166 -0.681456 0
0.690451 -0.870018 0
-0.035908 -0.490194 0
0.227708 -0.426232 0
3.41989 -3.86444 0
3.17304 -1.25414 0
0.0281079 -0.477607 0
0.470979 -6.26415 0
0.268074 -1.10433 0
1.37121 -1.98306 0
-0.175013 -3.07348 0
0.592574 -3.19846 0
-0.0568659 -0.141081 0
0.351728 -0.0454477 0
0.219956 -16.4743 0
-0.217355 -0.559185 0
0.139763 -0.0605356 0
0.546893 -0.622663 0
0.853378 -6.36887 0
0.0869445 -0.862331 0
0.504428 -5.69402 0
1.10359 -1.04519 0
0.200137 -0.964868 0
-0.022903 -0.0684166 0
0.663677 -0.0882375 0
0.687037 -2.31209 0
0.434061 -1.09367 0
0.717356 -11.7646 0
0.939319 -0.818963 0
0.109699 -1.28797 0
-0.0192534 -0.0389459 0
0.563817 -0.0928386 0
1.15836 -4.04703 0
0.30653 -13.288 0
-0.142814 -16.6052 0
0.523859 -0.556826 0
0.509776 -1.24811 0
0.827068 -0.933122 0
0.147718 -0.417495 0
-0.0153396 -0.151199 0
0.669826 -0.223994 0
0.180234 -0.873455 0
3.26342 -2.53454 0
2.23886 -0.763519 0
0.0168972 -0.76745 0
-0.269487 -0.5056 0
1.50366 -1.50297 0
0.0766358 -3.63993 0
0.429815 -1.32144 0
0.780162 -2.69004 0
-0.0962092 -0.279953 0
0.365741 -0.0184908 0
-0.191442 -0.83343 0
1.07723 -1.73336 0
0.244074 -0.821395 0
0.0598831 -0.215813 0
-0.313644 -0.56058 0
0.62959 -0.498629 0
0.356072 -3.83017 0
-0.107316 -0.631766 0
0.426104 -0.181634 0
1.13358 -0.939248 0
0.24437 -1.38129 0
0.0868426 -5.50843 0
0.903031 -3.76889 0
0.243542 -0.399892 0
2.02962 -3.7225 0
-0.0577056 -0.345747 0
2.67759 -1.24592 0
-0.451709 -8.66029 0
-0.22299 -0.625689 0
0.459301 -0.274636 0
0.0969913 -3.95249 0
0.793745 -1.33603 0
-0.017802 -0.230685 0
0.900464 -1.42014 0
-0.0310708 -0.352271 0
0.423079 -0.327272 0
0.353593 -3.81245 0
-0.0890186 -0.609238 0
3.53334 -1.62544 0
0.60308 -0.644733 0
0.380046 -1.36893 0
3.0042 -3.3012 0
-0.0827768 -0.222829 0
0.505922 -0.0371977 0
0.345682 -0.46478 0
0.716033 -1.42611 0
0.40422 -0.266518 0
0.438346 -3.67646 0
-0.211825 -0.574168 0
0.819782 -0.4309 0
-0.0414468 -4.5844 0
0.246035 -8.88683 0
4.70242 -2.71128 0
0.16203 -0.354424 0
0.247555 -16.1376 0
0.814507 -0.879005 0
0.123809 -3.87831 0
-0.290239 -0.486076 0
0.220824 -0.729667 0
-0.0145548 -0.0329673 0
0.320432 -0.149987 0
0.520417 -6.63034 0
0.955235 -0.652805 0
0.130951 -3.83227 0
-0.257291 -0.494276 0
0.427486 -5.52748 0
0.700851 -0.507825 0
0.892818 -0.792756 0
0.304785 -1.52241 0
0.162518 -3.71686 0
5.06998 -2.9712 0
0.668827 -3.59322 0
0.749561 -0.586011 0
1.04731 -0.851507 0
0.264985 -0.856732 0
-0.010643 -0.0660775 0
0.568936 -0.160576 0
0.264949 -2.97311 0
0.432069 -1.86267 0
0.241621 -1.6071 0
4.60992 -2.64994 0
0.764889 -0.975286 0
0.015171 -0.0647752 0
0.70425 -0.656269 0
0.222518 -0.684725 0
0.0532679 -0.314696 0
0.565122 -1.75289 0
1.20342 -0.850688 0
0.291868 -1.43594 0
0.0432495 -0.202382 0
0.572553 -1.28405 0
0.0239715 -0.0946799 0
0.0490318 -0.332961 0
0.020769 -0.087238 0
0.405443 -0.459038 0
0.0177002 -0.0617927 0
0.466897 -0.270179 0
0.0344787 -0.046018 0
0.309197 -0.278509 0
0.0497035 -0.0850806 0
0.309965 -0.565362 0
0.06954 -0.0490165 0
-0.208563 -0.602215 0
0.423035 -1.1997 0
-0.0511288 -0.188962 0
0.0600708 -0.0643602 0
-0.017118 -0.602676 0
0.0521877 -0.0480518 0
0.0534157 -0.309352 0
1.17995 -7.47674 0
1.08856 -8.77844 0
-0.0118218 -0.0274437 0
0.487524 -0.211457 0
0.0788265 -0.0580758 0
-0.181779 -0.430491 0
-0.0138441 -0.479926 0
0.0772724 -0.0547533 0
0.0550601 -0.386153 0
0.0718497 -0.0504684 0
-0.085374 -0.414163 0
0.0573776 -0.0556384 0
0.161816 -0.326367 0
0.0522415 -0.0595661 0
0.186961 -0.312474 0
0.501754 -2.58397 0
-0.04189 -0.0868691 0
0.529868 -0.0371422 0
0.0101327 -0.0617146 0
0.545225 -0.290065 0
-0.0578421 -0.155121 0
0.410913 -0.0251134 0
0.0317306 -0.0667112 0
0.379483 -0.329406 0
0.0336037 -0.0583528 0
0.299088 -0.222346 0
1.34529 -6.13553 0
0.570328 -1.57187 0
1.02018 -4.72224 0
-0.0263719 -0.0532254 0
0.317219 -0.0722346 0
0.00950022 -0.0590301 0
0.536619 -0.209947 0
-0.136055 -18.0278 0
4.49657 -1.31842 0
-0.0714971 -1.40259 0
4.64975 -2.32964 0
0.752607 -17.8434 0
1.99569 -0.673892 0
1.15137 -8.11909 0
2.25923 -1.04957 0
0.387888 -8.36401 0
3.60124 -1.73842 0
-0.010959 -18.5886 0
3.32367 -0.646592 0
0.220445 -1.36251 0
1.37003 -0.745332 0
-0.0350858 -0.391186 0
0.249767 -0.0372799 0
-0.0871004 -0.305293 0
0.0721348 -0.354678 0
0.209017 -0.054056 0
-0.0832864 -0.363541 0
0.10857 -0.505338 0
0.193742 -2.94092 0
-0.0542715 -0.1813 0
0.288848 -0.0249608 0
1.94629 -2.52113 0
-0.0275108 -2.85191 0
-0.0676962 -0.286155 0
0.31782 -0.0283088 0
0.851709 -1.49871 0
-0.0683629 -0.215835 0
0.37649 -0.025859 0
0.534876 -0.559423 0
1.26297 -4.70403 0
0.0689215 -0.346633 0
3.33195 -3.24178 0
0.215664 -18.1266 0
4.19649 -2.31166 0
-0.174814 -16.4493 0
-0.18839 -9.26324 0
5.47403 -2.42442 0
0.326745 -1.36906 0
0.847159 -0.74552 0
-0.339849 -2.16776 0
0.685155 -0.549141 0
0.178868 -1.08439 0
0.813395 -0.498066 0
-0.00547221 -4.23277 0
5.00532 -2.89881 0
0.184919 -1.0225 0
1.28602 -0.481901 0
-0.649122 -4.16315 0
1.3015 -1.68443 0
-0.439494 -2.18168 0
0.912969 -0.911563 0
0.20847 -0.0283492 0
-0.148386 -0.441736 0
0.251385 0.00494969 0
-0.209023 -0.486267 0
0.233542 -0.023796 0
-0.143445 -0.451155 0
0.217006 -0.0306759 0
-0.119615 -0.40652 0
0.245085 -0.93406 0
-0.0641564 -0.194651 0
0.356438 -0.900278 0
-0.0489078 -0.162285 0
0.479919 -1.19872 0
-0.0391596 -0.173204 0
0.31628 -0.960525 0
-0.0613513 -0.219104 0
0.3494 -1.04038 0
0.543411 -1.57645 0
-0.0185596 -0.173683 0
1.10545 -2.11059 0
-0.0229384 -0.244688 0
0.620204 -2.53631 0
0.671515 -2.19475 0
0.0242063 -0.230416 0
0.375005 -2.31764 0
0.0289879 -0.189006 0
3.43581 -2.12599 0
2.40993 -2.17605 0
2.51557 -1.76405 0
3.02281 -1.12842 0
-0.0654309 -0.149705 0
-0.053103 -0.141172 0
-0.046547 -0.135845 0
-0.0627799 -0.155816 0
0.0196903 -0.152864 0
0.0107857 -0.117882 0
0.0318675 -0.138205 0
0.0461301 -0.14949 0
0.312088 -0.0544016 0
-0.193909 -0.489923 0
0.32688 -0.135456 0
-0.0719425 -0.264093 0
0.207741 -0.137437 0
-0.104231 -0.381565 0
0.210608 -0.0707692 0
-0.229218 -0.618071 0
-0.0183452 -1.17307 0
0.428333 -0.238769 0
-0.0460583 -0.744127 0
0.362182 -0.127623 0
-0.0542096 -0.744702 0
0.412292 -0.0837271 0
-0.0404526 -1.15326 0
0.529164 -0.148286 0
0.310979 -0.719201 0
0.598604 -2.5058 0
0.719996 -2.44418 0
0.537789 -1.14926 0
-0.0491676 -2.7309 0
0.00110348 -2.56825 0
-0.245952 -2.37332 0
-0.315736 -2.97894 0
0.00636404 -0.169792 0
0.219547 -0.610813 0
-0.0623337 -0.41726 0
0.42948 -0.596032 0
0.00192248 -0.35628 0
0.532422 -0.73214 0
0.0166631 -0.15589 0
0.368382 -0.881356 0
0.336603 -10.4516 0
0.175147 -10.2675 0
1.04846 -4.68344 0
1.2529 -6.4407 0
-0.000923401 -0.0326077 0
-0.00137784 -0.0399472 0
0.0005137 -0.0371512 0
-0.00264376 -0.0357349 0
0.360703 -0.0312228 0
-0.105748 -0.319389 0
0.316328 -0.0298914 0
-0.0973775 -0.376268 0
0.327495 -0.0566587 0
-0.090474 -0.43494 0
0.36445 -0.08703 0
-0.10569 -0.535585 0
-0.0192148 -3.31598 0
0.184815 -3.58615 0
0.604954 -3.79271 0
0.120021 -4.00848 0
0.0190266 -1.21618 0
-0.0528192 -2.27724 0
-0.184388 -1.95263 0
0.0490817 -1.22202 0
-0.0126539 -0.0548396 0
0.077121 -0.520274 0
-0.0269592 -0.0614417 0
-0.0136217 -0.0494944 0
-0.00322795 -0.0392434 0
-0.034483 -0.0771416 0
-0.0483538 -0.135033 0
-0.0370845 -0.114504 0
-0.0301685 -0.0825981 0
0.649132 -0.45816 0
-0.263873 -1.04848 0
0.641453 -0.49291 0
-0.290566 -0.862782 0
0.64659 -0.524685 0
-0.135793 -0.707992 0
0.583347 -0.479132 0
-0.206049 -0.885703 0
0.102439 -0.72678 0
0.101412 -0.370221 0
0.15557 -0.74174 0
0.182093 -0.38115 0
0.104866 -0.830034 0
0.135768 -0.321822 0
0.0820942 -0.829137 0
0.119902 -0.304693 0
0.733434 -0.843509 0
0.0100536 -0.394586 0
0.65444 -0.854038 0
0.0702367 -0.41425 0
0.585782 -0.632748 0
0.0238667 -0.186724 0
0.633185 -0.532448 0
0.000876724 -0.158118 0
0.0239944 -0.199443 0
0.0637866 -0.175495 0
0.140041 -0.270843 0
0.040998 -0.259171 0
0.252404 -0.546152 0
0.049224 -0.269572 0
0.13938 -0.305689 0
-0.046207 -0.352261 0
0.166784 -0.264512 0
-0.031564 -0.249187 0
0.2102 -0.423983 0
0.0177153 -0.20033 0
-0.153901 -0.662695 0
1.58871 -0.887008 0
-0.0834081 -0.442205 0
1.36594 -0.615169 0
-0.0755432 -0.444769 0
0.702887 -0.450349 0
-0.207228 -0.83624 0
0.870399 -0.670487 0
0.0797386 -0.0667043 0
-0.161048 -0.758038 0
0.119123 -0.0724896 0
-0.174867 -0.631645 0
0.121422 -0.126542 0
-0.118409 -0.562191 0
0.0967723 -0.153949 0
-0.0911846 -0.547584 0
0.198853 -1.7999 0
0.468518 -1.42403 0
0.754122 -2.79266 0
0.249326 -2.77528 0
-0.167554 -2.76148 0
-0.541721 -2.91716 0
-0.475649 -2.56528 0
-0.182115 -2.80272 0
-0.0196358 -0.0742322 0
-0.00902994 -0.0444249 0
0.00302785 -0.04779 0
0.00758146 -0.0622631 0
0.136143 -0.198309 0
1.20727 -3.42215 0
0.0568822 -0.15755 0
1.46186 -2.6971 0
0.0621694 -0.174484 0
2.19388 -3.15748 0
0.161416 -0.181836 0
2.21785 -4.34724 0
-0.00631787 -0.133894 0
1.15994 -1.66135 0
0.00994162 -0.148377 0
0.567098 -1.15177 0
-0.01422 -0.356312 0
0.854543 -0.871637 0
-0.0338761 -0.284172 0
1.2742 -0.731625 0
1.01573 -8.03229 0
1.84798 -3.76322 0
1.04132 -3.6709 0
0.476613 -9.63259 0
1.57485 -4.80409 0
0.712755 -4.46274 0
0.971484 -4.1844 0
0.99742 -3.41596 0
0.735096 -1.19692 0
0.742622 -1.26106 0