# vtk DataFile Version 2.0
Unstructured Grid by M++
ASCII
DATASET UNSTRUCTURED_GRID
POINTS 81 float
  1.000000   0.625000 0
  0.750000   0.375000 0
  1.000000   0.000000 0
  0.875000   0.875000 0
  0.750000   0.125000 0
  1.000000   1.000000 0
  0.875000   0.250000 0
  0.625000   0.875000 0
  1.000000   0.750000 0
  0.875000   0.000000 0
  1.000000   0.250000 0
  0.625000   0.375000 0
  0.875000   0.500000 0
  0.625000   0.625000 0
  1.000000   0.500000 0
  0.750000   0.500000 0
  0.750000   1.000000 0
  1.000000   0.125000 0
  0.625000   0.250000 0
  0.750000   0.750000 0
  0.625000   0.000000 0
  0.125000   0.375000 0
  0.000000   0.500000 0
  0.125000   0.625000 0
  0.625000   1.000000 0
  1.000000   0.875000 0
  0.875000   0.125000 0
  0.500000   0.250000 0
  0.625000   0.500000 0
  0.250000   0.625000 0
  0.000000   0.625000 0
  0.375000   0.500000 0
  0.375000   0.000000 0
  0.000000   0.125000 0
  0.125000   0.875000 0
  0.875000   1.000000 0
  0.750000   0.250000 0
  0.375000   0.375000 0
  0.250000   0.375000 0
  0.625000   0.750000 0
  0.125000   0.125000 0
  0.500000   0.000000 0
  0.250000   0.875000 0
  0.125000   0.500000 0
  0.500000   0.375000 0
  0.125000   0.000000 0
  0.250000   0.750000 0
  0.250000   0.500000 0
  0.000000   0.875000 0
  0.875000   0.625000 0
  0.500000   0.750000 0
  0.750000   0.625000 0
  0.250000   0.000000 0
  0.375000   0.750000 0
  0.750000   0.875000 0
  0.625000   0.125000 0
  0.250000   0.250000 0
  0.375000   1.000000 0
  0.375000   0.250000 0
  0.000000   0.375000 0
  0.500000   1.000000 0
  0.875000   0.750000 0
  0.750000   0.000000 0
  0.375000   0.125000 0
  0.500000   0.875000 0
  0.000000   0.000000 0
  0.125000   0.750000 0
  0.500000   0.625000 0
  0.125000   0.250000 0
  0.500000   0.125000 0
  0.250000   1.000000 0
  0.250000   0.125000 0
  0.000000   1.000000 0
  0.375000   0.875000 0
  0.000000   0.750000 0
  0.375000   0.625000 0
  0.000000   0.250000 0
  0.125000   1.000000 0
  1.000000   0.375000 0
  0.500000   0.500000 0
  0.875000   0.375000 0
CELLS 64 320
4 56 71 58 63
4 27 58 69 63
4 41 69 32 63
4 76 33 68 40
4 27 44 58 37
4 79 31 44 37
4 56 38 68 21
4 56 58 38 37
4 52 32 71 63
4 47 38 31 37
4 76 68 59 21
4 22 59 43 21
4 65 45 33 40
4 47 43 38 21
4 52 71 45 40
4 56 68 71 40
4 74 30 66 23
4 46 66 29 23
4 22 43 30 23
4 72 48 77 34
4 46 53 42 73
4 50 64 53 73
4 70 42 57 73
4 74 66 48 34
4 46 42 66 34
4 47 29 43 23
4 70 77 42 34
4 60 57 64 73
4 79 67 31 75
4 47 31 29 75
4 50 53 67 75
4 46 29 53 75
4 10 78 6 80
4 36 6 1 80
4 15 1 12 80
4 36 4 6 26
4 14 12 78 80
4 2 17 9 26
4 36 18 4 55
4 15 28 1 11
4 62 4 20 55
4 10 6 17 26
4 27 18 44 11
4 62 9 4 26
4 27 69 18 55
4 36 1 18 11
4 41 20 69 55
4 79 44 28 11
4 16 24 54 7
4 19 54 39 7
4 50 39 64 7
4 8 25 61 3
4 60 64 24 7
4 79 28 67 13
4 19 51 61 49
4 8 61 0 49
4 15 51 28 13
4 19 39 51 13
4 50 67 39 13
4 19 61 54 3
4 14 0 12 49
4 5 35 25 3
4 15 12 51 49
4 16 54 35 3
CELL_TYPES 64
8
8
8
8
8
8
8
8
8
8
8
8
8
8
8
8
8
8
8
8
8
8
8
8
8
8
8
8
8
8
8
8
8
8
8
8
8
8
8
8
8
8
8
8
8
8
8
8
8
8
8
8
8
8
8
8
8
8
8
8
8
8
8
8
CELL_DATA 64
VECTORS vector_value float
0.0399919 -0.590926 0
-0.103516 -1.19026 0
0.0533549 -0.999723 0
-0.668272 -2.46124 0
-0.0757744 -0.764044 0
0.0201687 -0.604613 0
-0.474824 -2.19683 0
0.120044 -0.354656 0
-0.0413863 -0.576115 0
-0.0242386 -0.375295 0
-0.154433 -1.12897 0
-0.283487 -0.886847 0
-0.109223 -2.89387 0
-0.244114 -2.55929 0
-0.137662 -0.264397 0
-0.279687 -0.642961 0
-0.0173387 -0.676373 0
-0.375602 -1.69853 0
0.0298192 -0.444343 0
0.294823 -0.501935 0
-0.171121 -1.72898 0
0.0312018 -1.1722 0
0.103244 -1.27515 0
-0.0570259 -0.469714 0
-0.266476 -1.19726 0
-0.320472 -2.44097 0
0.549827 -1.00083 0
-0.475368 -1.6237 0
-0.343727 -1.30746 0
-0.874825 -0.408593 0
0.168313 -1.90309 0
-0.104928 -0.427817 0
-0.0130997 -0.148923 0
-0.0617797 -0.25231 0
-0.611585 -0.94104 0
0.218056 -0.517725 0
-0.117604 -0.322956 0
0.0454054 -0.28076 0
-0.575488 -1.79588 0
0.039918 -1.70351 0
-0.07655 -0.396305 0
0.0329282 -0.14249 0
-0.394622 -0.726975 0
0.0353907 -0.516207 0
-0.22071 -0.65852 0
-0.417365 -2.42729 0
-0.519337 -2.07263 0
0.069153 -0.606446 0
-0.895897 -0.88859 0
-0.0446736 -1.65608 0
-0.00750572 -1.0805 0
-0.037848 -0.54045 0
-0.610936 -1.3178 0
0.415435 -1.18537 0
0.265978 -0.850341 0
-0.0908656 -0.296406 0
0.114167 -0.538891 0
0.33825 -1.23616 0
-0.0884479 -0.911282 0
-0.0425007 -0.15481 0
0.0555112 -0.442702 0
-0.22648 -0.616974 0
0.0863184 -1.23167 0
-0.845116 -0.775023 0
