# vtk DataFile Version 2.0
Unstructured Grid by M++
ASCII
DATASET UNSTRUCTURED_GRID
POINTS 81 float
  1.000000   0.625000 0
  0.750000   0.375000 0
  1.000000   0.000000 0
  0.875000   0.875000 0
  0.750000   0.125000 0
  1.000000   1.000000 0
  0.875000   0.250000 0
  0.625000   0.875000 0
  1.000000   0.750000 0
  0.875000   0.000000 0
  1.000000   0.250000 0
  0.625000   0.375000 0
  0.875000   0.500000 0
  0.625000   0.625000 0
  1.000000   0.500000 0
  0.750000   0.500000 0
  0.750000   1.000000 0
  1.000000   0.125000 0
  0.625000   0.250000 0
  0.750000   0.750000 0
  0.625000   0.000000 0
  0.125000   0.375000 0
  0.000000   0.500000 0
  0.125000   0.625000 0
  0.625000   1.000000 0
  1.000000   0.875000 0
  0.875000   0.125000 0
  0.500000   0.250000 0
  0.625000   0.500000 0
  0.250000   0.625000 0
  0.000000   0.625000 0
  0.375000   0.500000 0
  0.375000   0.000000 0
  0.000000   0.125000 0
  0.125000   0.875000 0
  0.875000   1.000000 0
  0.750000   0.250000 0
  0.375000   0.375000 0
  0.250000   0.375000 0
  0.625000   0.750000 0
  0.125000   0.125000 0
  0.500000   0.000000 0
  0.250000   0.875000 0
  0.125000   0.500000 0
  0.500000   0.375000 0
  0.125000   0.000000 0
  0.250000   0.750000 0
  0.250000   0.500000 0
  0.000000   0.875000 0
  0.875000   0.625000 0
  0.500000   0.750000 0
  0.750000   0.625000 0
  0.250000   0.000000 0
  0.375000   0.750000 0
  0.750000   0.875000 0
  0.625000   0.125000 0
  0.250000   0.250000 0
  0.375000   1.000000 0
  0.375000   0.250000 0
  0.000000   0.375000 0
  0.500000   1.000000 0
  0.875000   0.750000 0
  0.750000   0.000000 0
  0.375000   0.125000 0
  0.500000   0.875000 0
  0.000000   0.000000 0
  0.125000   0.750000 0
  0.500000   0.625000 0
  0.125000   0.250000 0
  0.500000   0.125000 0
  0.250000   1.000000 0
  0.250000   0.125000 0
  0.000000   1.000000 0
  0.375000   0.875000 0
  0.000000   0.750000 0
  0.375000   0.625000 0
  0.000000   0.250000 0
  0.125000   1.000000 0
  1.000000   0.375000 0
  0.500000   0.500000 0
  0.875000   0.375000 0
CELLS 64 320
4 56 71 58 63
4 27 58 69 63
4 41 69 32 63
4 76 33 68 40
4 27 44 58 37
4 79 31 44 37
4 56 38 68 21
4 56 58 38 37
4 52 32 71 63
4 47 38 31 37
4 76 68 59 21
4 22 59 43 21
4 65 45 33 40
4 47 43 38 21
4 52 71 45 40
4 56 68 71 40
4 74 30 66 23
4 46 66 29 23
4 22 43 30 23
4 72 48 77 34
4 46 53 42 73
4 50 64 53 73
4 70 42 57 73
4 74 66 48 34
4 46 42 66 34
4 47 29 43 23
4 70 77 42 34
4 60 57 64 73
4 79 67 31 75
4 47 31 29 75
4 50 53 67 75
4 46 29 53 75
4 10 78 6 80
4 36 6 1 80
4 15 1 12 80
4 36 4 6 26
4 14 12 78 80
4 2 17 9 26
4 36 18 4 55
4 15 28 1 11
4 62 4 20 55
4 10 6 17 26
4 27 18 44 11
4 62 9 4 26
4 27 69 18 55
4 36 1 18 11
4 41 20 69 55
4 79 44 28 11
4 16 24 54 7
4 19 54 39 7
4 50 39 64 7
4 8 25 61 3
4 60 64 24 7
4 79 28 67 13
4 19 51 61 49
4 8 61 0 49
4 15 51 28 13
4 19 39 51 13
4 50 67 39 13
4 19 61 54 3
4 14 0 12 49
4 5 35 25 3
4 15 12 51 49
4 16 54 35 3
CELL_TYPES 64
8
8
8
8
8
8
8
8
8
8
8
8
8
8
8
8
8
8
8
8
8
8
8
8
8
8
8
8
8
8
8
8
8
8
8
8
8
8
8
8
8
8
8
8
8
8
8
8
8
8
8
8
8
8
8
8
8
8
8
8
8
8
8
8
CELL_DATA 64
VECTORS vector_value float
-0.13069 -0.731508 0
-0.223437 -0.368064 0
-0.00922421 -0.794603 0
0.381032 -3.63873 0
-0.127786 -0.477984 0
-0.146018 -0.374695 0
-0.0737029 -0.316617 0
-0.0265877 -0.315612 0
0.0179671 -0.392977 0
-0.111616 -0.275462 0
-0.450055 -3.56676 0
-0.334727 -2.37015 0
0.250734 -2.54168 0
-0.784068 -1.43897 0
0.518951 -1.42737 0
0.0478028 -0.159903 0
-0.473418 -0.468151 0
-1.40499 -1.53434 0
-0.473633 -1.67695 0
0.387503 -0.535227 0
-0.198969 -2.22195 0
-0.749619 -1.01042 0
-0.235716 -0.462996 0
-0.016487 -0.163904 0
0.431614 -1.55997 0
-0.513542 -1.57679 0
0.109066 -1.92902 0
-0.311067 -1.43239 0
0.0349083 -0.324529 0
-0.274194 -0.85988 0
0.27138 -0.294423 0
-0.702734 -2.35941 0
-0.343244 -1.13464 0
0.113257 -0.828707 0
0.232983 -0.535528 0
-1.14512 -1.65216 0
0.0521255 -0.903949 0
-0.00313394 -0.103313 0
-0.574253 -0.907425 0
0.337398 -1.32661 0
-0.918142 -1.28539 0
-0.0849564 -0.203066 0
-0.136164 -0.374874 0
-0.0346888 -0.338909 0
-0.12734 -0.339147 0
0.0308826 -0.984812 0
-0.730442 -1.11576 0
-0.0342626 -0.774638 0
-0.492345 -0.606133 0
-0.302649 -0.468005 0
-0.424989 -1.00209 0
0.0982983 -1.27344 0
-0.578767 -0.957629 0
-0.029917 -0.631155 0
-0.187171 -0.227682 0
-0.131085 -1.01886 0
0.267512 -1.73423 0
0.0834884 -0.747355 0
0.725634 -1.34978 0
-0.231477 -0.300234 0
0.021608 -0.787933 0
-0.0584781 -0.827358 0
0.058422 -0.408526 0
-0.0392215 -1.24924 0
