# vtk DataFile Version 2.0
Unstructured Grid by M++
ASCII
DATASET UNSTRUCTURED_GRID
POINTS 289 float
  0.562500   1.000000 0
  0.562500   0.625000 0
  0.625000   1.000000 0
  0.562500   0.937500 0
  0.562500   0.562500 0
  0.625000   0.937500 0
  0.562500   0.875000 0
  0.625000   0.750000 0
  0.625000   0.625000 0
  0.562500   0.812500 0
  0.562500   0.750000 0
  0.562500   0.687500 0
  0.625000   0.875000 0
  0.625000   0.812500 0
  0.625000   0.687500 0
  0.687500   0.125000 0
  0.875000   0.062500 0
  0.625000   0.125000 0
  0.625000   0.187500 0
  0.625000   0.250000 0
  0.812500   0.187500 0
  1.000000   0.125000 0
  0.687500   0.187500 0
  0.750000   0.125000 0
  0.937500   0.062500 0
  0.937500   0.125000 0
  0.750000   0.187500 0
  0.812500   0.062500 0
  0.812500   0.125000 0
  0.875000   0.687500 0
  0.187500   0.250000 0
  0.437500   0.250000 0
  0.375000   0.187500 0
  0.812500   0.625000 0
  0.125000   0.187500 0
  0.937500   0.750000 0
  0.250000   0.312500 0
  0.500000   0.312500 0
  0.625000   0.062500 0
  0.437500   0.500000 0
  0.375000   0.125000 0
  0.437500   0.187500 0
  0.437500   0.437500 0
  0.437500   0.375000 0
  0.875000   0.875000 0
  0.187500   0.375000 0
  0.687500   0.562500 0
  0.687500   0.625000 0
  0.000000   0.125000 0
  0.937500   0.625000 0
  0.250000   0.125000 0
  0.375000   0.062500 0
  0.375000   0.000000 0
  0.812500   0.500000 0
  0.125000   0.000000 0
  0.937500   0.937500 0
  0.250000   0.437500 0
  0.687500   0.875000 0
  0.687500   0.937500 0
  0.000000   0.437500 0
  0.500000   0.500000 0
  0.500000   0.437500 0
  0.750000   0.937500 0
  0.750000   1.000000 0
  0.062500   0.500000 0
  1.000000   1.000000 0
  0.312500   0.500000 0
  0.875000   0.562500 0
  0.187500   0.062500 0
  0.437500   0.125000 0
  0.437500   0.062500 0
  0.500000   0.375000 0
  0.937500   0.812500 0
  0.937500   0.875000 0
  0.250000   0.375000 0
  0.687500   0.812500 0
  0.000000   0.375000 0
  0.750000   0.562500 0
  0.062500   0.125000 0
  1.000000   0.562500 0
  1.000000   0.625000 0
  0.312500   0.125000 0
  0.562500   0.125000 0
  0.437500   0.000000 0
  0.875000   0.437500 0
  0.875000   0.500000 0
  0.187500   0.000000 0
  0.937500   0.562500 0
  0.937500   0.500000 0
  0.250000   0.062500 0
  0.687500   0.500000 0
  0.000000   0.062500 0
  0.500000   0.062500 0
  1.000000   0.875000 0
  1.000000   0.937500 0
  0.312500   0.437500 0
  0.750000   0.875000 0
  0.062500   0.437500 0
  0.812500   0.937500 0
  0.125000   0.500000 0
  0.375000   0.500000 0
  0.625000   0.562500 0
  0.625000   0.500000 0
  0.437500   0.312500 0
  0.875000   0.812500 0
  0.875000   0.750000 0
  0.187500   0.312500 0
  0.812500   0.687500 0
  0.812500   0.750000 0
  0.125000   0.250000 0
  0.375000   0.250000 0
  1.000000   0.687500 0
  0.312500   0.187500 0
  0.750000   0.687500 0
  0.750000   0.625000 0
  0.062500   0.187500 0
  0.562500   0.250000 0
  0.562500   0.187500 0
  0.375000   1.000000 0
  0.500000   0.562500 0
  0.500000   0.250000 0
  0.750000   0.250000 0
  0.500000   0.125000 0
  0.500000   0.187500 0
  1.000000   0.187500 0
  0.625000   0.375000 0
  0.875000   0.375000 0
  1.000000   0.437500 0
  0.312500   0.000000 0
  0.562500   0.000000 0
  0.812500   0.000000 0
  0.250000   0.687500 0
  0.000000   0.687500 0
  0.500000   1.000000 0
  0.250000   1.000000 0
  0.000000   1.000000 0
  0.437500   0.687500 0
  0.437500   0.625000 0
  0.187500   0.625000 0
  0.687500   0.750000 0
  0.000000   0.312500 0
  0.000000   0.250000 0
  0.375000   0.375000 0
  0.375000   0.312500 0
  0.812500   0.812500 0
  0.125000   0.312500 0
  0.875000   0.625000 0
  0.187500   0.187500 0
  0.187500   0.125000 0
  0.937500   1.000000 0
  0.250000   0.562500 0
  0.250000   0.500000 0
  0.687500   1.000000 0
  0.000000   0.500000 0
  0.687500   0.687500 0
  0.000000   0.187500 0
  0.937500   0.687500 0
  0.250000   0.250000 0
  0.250000   0.187500 0
  0.187500   0.687500 0
  0.000000   0.750000 0
  0.250000   0.750000 0
  0.125000   0.625000 0
  0.750000   0.750000 0
  0.062500   0.250000 0
  0.875000   0.937500 0
  0.187500   0.500000 0
  0.187500   0.437500 0
  0.812500   0.562500 0
  0.125000   0.125000 0
  0.125000   0.062500 0
  0.375000   0.625000 0
  0.375000   0.687500 0
  1.000000   0.750000 0
  0.312500   0.250000 0
  0.312500   0.312500 0
  0.812500   0.312500 0
  0.562500   0.312500 0
  0.375000   0.750000 0
  0.500000   0.625000 0
  0.250000   0.625000 0
  0.312500   0.687500 0
  0.750000   0.812500 0
  0.062500   0.312500 0
  0.062500   0.375000 0
  1.000000   0.812500 0
  0.312500   0.375000 0
  0.562500   0.375000 0
  0.687500   0.437500 0
  0.000000   0.000000 0
  0.500000   0.000000 0
  0.937500   0.437500 0
  0.250000   0.000000 0
  0.375000   0.437500 0
  0.812500   0.875000 0
  0.125000   0.375000 0
  0.125000   0.437500 0
  0.625000   0.437500 0
  1.000000   0.500000 0
  0.312500   0.062500 0
  0.750000   0.500000 0
  0.062500   0.000000 0
  0.062500   0.062500 0
  0.562500   0.062500 0
  0.062500   0.750000 0
  0.312500   0.750000 0
  0.312500   0.625000 0
  0.312500   0.562500 0
  0.062500   0.562500 0
  0.187500   1.000000 0
  0.437500   0.562500 0
  0.875000   1.000000 0
  0.187500   0.562500 0
  0.500000   0.937500 0
  0.250000   0.937500 0
  0.312500   1.000000 0
  0.125000   0.750000 0
  0.125000   0.687500 0
  1.000000   0.000000 0
  0.000000   0.937500 0
  0.000000   0.875000 0
  0.875000   0.125000 0
  0.875000   0.187500 0
  0.062500   0.812500 0
  0.312500   0.812500 0
  0.000000   0.812500 0
  0.000000   0.625000 0
  0.000000   0.562500 0
  0.062500   1.000000 0
  0.062500   0.937500 0
  0.937500   0.187500 0
  0.937500   0.250000 0
  0.062500   0.687500 0
  0.062500   0.625000 0
  0.125000   1.000000 0
  1.000000   0.250000 0
  1.000000   0.312500 0
  0.062500   0.875000 0
  0.125000   0.812500 0
  0.375000   0.812500 0
  0.125000   0.875000 0
  0.375000   0.937500 0
  0.375000   0.875000 0
  0.187500   0.750000 0
  0.187500   0.812500 0
  0.437500   0.812500 0
  0.187500   0.875000 0
  0.437500   0.875000 0
  0.375000   0.562500 0
  0.812500   1.000000 0
  0.125000   0.562500 0
  0.437500   1.000000 0
  0.437500   0.937500 0
  0.187500   0.937500 0
  0.125000   0.937500 0
  0.500000   0.687500 0
  0.500000   0.750000 0
  0.500000   0.812500 0
  0.250000   0.812500 0
  0.250000   0.875000 0
  0.500000   0.875000 0
  0.437500   0.750000 0
  0.312500   0.875000 0
  0.312500   0.937500 0
  0.687500   0.250000 0
  0.687500   0.312500 0
  0.937500   0.312500 0
  0.875000   0.250000 0
  0.625000   0.000000 0
  0.875000   0.000000 0
  0.687500   0.375000 0
  0.937500   0.375000 0
  0.875000   0.312500 0
  0.625000   0.312500 0
  0.687500   0.000000 0
  0.937500   0.000000 0
  0.750000   0.312500 0
  0.750000   0.375000 0
  1.000000   0.375000 0
  0.812500   0.250000 0
  0.562500   0.437500 0
  0.562500   0.500000 0
  0.687500   0.062500 0
  0.750000   0.437500 0
  0.750000   0.000000 0
  0.750000   0.062500 0
  1.000000   0.062500 0
  0.812500   0.375000 0
  0.812500   0.437500 0
CELLS 256 1280
4 169 170 148 68
4 151 166 56 167
4 195 45 196 167
4 54 170 201 202
4 109 34 30 147
4 40 32 81 112
4 192 89 86 68
4 48 91 78 202
4 99 64 196 97
4 71 43 37 103
4 74 186 56 95
4 109 164 34 115
4 50 81 158 112
4 122 69 92 70
4 195 145 45 106
4 110 143 174 175
4 157 30 158 147
4 40 69 32 41
4 50 158 148 147
4 141 155 164 115
4 122 123 69 41
4 142 186 143 175
4 60 39 61 42
4 40 51 69 70
4 120 31 123 41
4 157 174 36 175
4 50 148 89 68
4 48 78 155 115
4 52 83 51 70
4 151 56 66 95
4 71 61 43 42
4 169 148 34 147
4 100 193 39 42
4 40 81 51 199
4 110 174 32 112
4 109 30 145 106
4 100 66 193 95
4 169 34 78 115
4 190 92 83 70
4 50 89 81 199
4 54 86 170 68
4 74 56 45 167
4 142 143 43 103
4 153 59 64 97
4 99 196 166 167
4 169 78 170 202
4 142 193 186 95
4 192 128 89 199
4 74 45 36 106
4 110 31 143 103
4 76 184 59 97
4 142 43 193 42
4 52 51 128 199
4 189 201 91 202
4 120 37 31 103
4 74 36 186 175
4 195 196 184 97
4 141 164 140 183
4 157 158 174 112
4 109 145 164 183
4 195 184 145 183
4 110 32 31 41
4 157 36 30 106
4 76 140 184 183
4 171 172 206 181
4 178 172 261 136
4 256 261 255 136
4 256 257 261 245
4 180 150 206 207
4 60 119 39 210
4 118 215 241 263
4 178 205 172 181
4 216 243 238 244
4 162 217 233 232
4 180 206 131 181
4 179 137 119 210
4 216 204 217 232
4 220 237 219 229
4 216 217 243 159
4 259 258 262 224
4 240 254 237 229
4 153 64 227 208
4 161 205 258 224
4 240 237 238 223
4 226 227 233 208
4 234 228 254 229
4 171 248 137 210
4 160 132 204 232
4 180 131 138 159
4 133 251 213 252
4 171 206 248 207
4 162 138 217 159
4 161 258 243 244
4 220 225 237 223
4 151 150 166 212
4 260 247 257 245
4 259 262 214 263
4 151 66 150 207
4 234 254 209 253
4 162 233 250 208
4 242 241 262 263
4 171 137 172 136
4 161 243 131 159
4 160 204 225 223
4 161 131 205 181
4 179 255 137 136
4 216 238 204 223
4 100 39 248 210
4 260 213 247 252
4 226 233 132 232
4 134 214 215 263
4 180 138 150 212
4 178 261 239 245
4 259 246 258 244
4 178 239 205 224
4 240 238 246 244
4 242 262 239 224
4 99 250 64 208
4 240 246 254 253
4 242 239 247 245
4 135 219 228 229
4 99 166 250 212
4 259 214 246 253
4 118 241 251 252
4 100 248 66 207
4 134 209 214 253
4 162 250 138 212
4 242 247 241 252
4 71 187 61 280
4 102 281 197 280
4 122 92 82 203
4 17 18 82 117
4 122 82 123 117
4 19 264 273 265
4 267 279 222 20
4 125 273 270 265
4 267 272 279 176
4 19 116 18 117
4 21 25 286 24
4 23 28 26 20
4 23 285 28 27
4 218 286 275 24
4 85 53 84 288
4 235 236 231 266
4 221 222 28 20
4 267 222 231 230
4 268 38 129 203
4 125 270 197 188
4 126 287 272 176
4 277 270 276 265
4 267 231 272 266
4 125 197 187 280
4 190 129 92 203
4 277 276 287 176
4 19 18 264 22
4 17 82 38 203
4 102 197 90 188
4 126 84 287 288
4 284 130 285 27
4 121 276 264 265
4 71 37 187 177
4 120 123 116 117
4 198 88 127 191
4 221 16 25 24
4 23 26 15 22
4 121 279 276 176
4 235 231 124 230
4 125 187 273 177
4 278 271 236 266
4 277 287 283 288
4 284 285 274 282
4 278 127 271 191
4 269 275 16 24
4 200 283 53 288
4 23 15 285 282
4 121 26 279 20
4 21 124 25 230
4 19 273 116 177
4 200 90 283 188
4 126 271 84 191
4 269 16 130 27
4 17 38 15 282
4 221 25 222 230
4 121 264 26 22
4 120 116 37 177
4 60 61 281 280
4 277 283 270 188
4 126 272 271 266
4 268 274 38 282
4 85 84 88 191
4 17 15 18 22
4 221 28 16 27
4 93 94 73 55
4 85 88 67 87
4 80 49 79 87
4 44 104 73 72
4 146 33 67 168
4 211 165 149 55
4 8 47 14 154
4 105 104 108 144
4 105 108 29 107
4 7 139 13 75
4 44 165 194 98
4 200 53 77 168
4 8 1 101 4
4 2 5 152 58
4 260 6 213 3
4 105 35 104 72
4 96 57 182 75
4 7 14 139 154
4 146 29 33 107
4 7 13 10 9
4 12 13 57 75
4 85 67 53 168
4 44 73 165 55
4 63 152 62 58
4 8 101 47 46
4 96 182 194 144
4 60 281 119 4
4 12 5 6 3
4 173 185 35 72
4 65 149 94 55
4 146 67 49 87
4 114 113 47 154
4 163 108 182 144
4 12 6 13 9
4 173 35 111 156
4 163 182 139 75
4 260 257 6 9
4 105 29 35 156
4 163 139 113 154
4 256 10 257 9
4 146 49 29 156
4 163 113 108 107
4 80 111 49 156
4 102 101 281 4
4 12 57 5 58
4 44 194 104 144
4 96 194 62 98
4 2 0 5 3
4 93 73 185 72
4 179 119 1 4
4 200 77 90 46
4 114 33 113 107
4 7 10 14 11
4 96 62 57 58
4 133 213 0 3
4 102 90 101 46
4 256 255 10 11
4 63 62 249 98
4 114 47 77 46
4 179 1 255 11
4 211 249 165 98
4 114 77 33 168
4 198 79 88 87
4 8 14 1 11
CELL_TYPES 256
8
8
8
8
8
8
8
8
8
8
8
8
8
8
8
8
8
8
8
8
8
8
8
8
8
8
8
8
8
8
8
8
8
8
8
8
8
8
8
8
8
8
8
8
8
8
8
8
8
8
8
8
8
8
8
8
8
8
8
8
8
8
8
8
8
8
8
8
8
8
8
8
8
8
8
8
8
8
8
8
8
8
8
8
8
8
8
8
8
8
8
8
8
8
8
8
8
8
8
8
8
8
8
8
8
8
8
8
8
8
8
8
8
8
8
8
8
8
8
8
8
8
8
8
8
8
8
8
8
8
8
8
8
8
8
8
8
8
8
8
8
8
8
8
8
8
8
8
8
8
8
8
8
8
8
8
8
8
8
8
8
8
8
8
8
8
8
8
8
8
8
8
8
8
8
8
8
8
8
8
8
8
8
8
8
8
8
8
8
8
8
8
8
8
8
8
8
8
8
8
8
8
8
8
8
8
8
8
8
8
8
8
8
8
8
8
8
8
8
8
8
8
8
8
8
8
8
8
8
8
8
8
8
8
8
8
8
8
8
8
8
8
8
8
8
8
8
8
8
8
8
8
8
8
8
8
CELL_DATA 256
VECTORS vector_value float
0.110884 -1.23816 0
-0.0485452 -0.803941 0
-0.190716 -1.43954 0
0.0893808 -0.183422 0
0.455541 -0.672286 0
0.00258655 -0.0519862 0
0.141843 -0.95555 0
0.00564536 -0.015188 0
-0.307577 -0.899898 0
0.0329739 -0.0555469 0
-0.00862644 -0.249958 0
0.499474 -0.991127 0
0.0246365 -0.519123 0
-0.0681458 -0.217422 0
-0.138965 -0.527103 0
0.0796375 -0.119189 0
0.288042 -0.891049 0
-0.000609839 -0.0266071 0
0.0430154 -1.12385 0
0.235735 -0.399885 0
-0.00049485 -0.186509 0
0.0197716 -0.0565604 0
0.00580468 -0.162281 0
-0.00886425 -0.0266176 0
-0.0139987 -0.20143 0
0.0826212 -0.217618 0
-0.0819234 -0.971089 0
0.0382477 -0.0859709 0
-0.0160378 -0.043267 0
0.0119499 -0.327417 0
0.0590755 -0.0866755 0
0.0812095 -0.69025 0
0.00242259 -0.0313117 0
-0.0062839 -0.0701579 0
0.013987 -0.0745419 0
0.189306 -0.682054 0
-0.00216825 -0.0165727 0
0.102439 -0.906024 0
-0.237767 -0.670672 0
-0.0104643 -0.476602 0
0.266768 -1.55901 0
-0.0729377 -0.698304 0
0.0173941 -0.00686701 0
0.0215952 -0.0860865 0
-0.268417 -1.35518 0
0.285144 -0.61737 0
0.0135411 -0.053916 0
0.0540619 -0.63541 0
0.126036 -0.861541 0
0.0412188 -0.0105856 0
-0.157759 -0.339122 0
0.00404382 -0.00877526 0
-0.0203607 -0.0451889 0
-0.00267969 -0.018684 0
0.00995851 -0.0499545 0
0.0518942 -0.283713 0
-0.170933 -0.716985 0
0.130298 -0.774538 0
0.0887802 -0.369758 0
0.258791 -0.870816 0
-0.559488 -0.974853 0
0.0453264 -0.0260564 0
0.0994916 -0.792922 0
-0.217396 -0.78287 0
-0.010243 -0.0957695 0
0.0397914 -0.24168 0
0.81544 -0.976943 0
5.07564 -3.2708 0
-0.134548 -0.618777 0
-0.0267568 -0.141557 0
1.08928 -0.884807 0
-0.376213 -0.57865 0
0.260825 -0.448842 0
0.0865747 -0.86843 0
-0.130546 -0.823439 0
-0.00437537 -0.045411 0
0.333584 -0.679974 0
0.114364 -1.64681 0
0.0800853 -0.704242 0
0.57413 -0.431347 0
0.242712 -0.344824 0
0.0230265 -0.143519 0
0.0205722 -0.408665 0
0.338692 -0.263824 0
-0.04762 -0.196392 0
-0.369652 -0.679652 0
0.000668335 -0.0458605 0
0.171603 -0.263025 0
-0.370918 -0.8627 0
-0.637 -1.44031 0
-0.0180212 -0.0885227 0
-0.0409077 -0.768509 0
0.156857 -0.214281 0
0.238043 -1.32657 0
-0.158464 -0.961923 0
0.147838 -2.91577 0
0.803782 -0.714598 0
-0.130401 -0.319692 0
0.243723 -0.531325 0
0.113101 -0.396013 0
0.672471 -0.896125 0
-0.0129181 -0.0375319 0
-0.215964 -0.348782 0
0.260266 -0.778755 0
-0.69912 -0.844797 0
-0.0159633 -0.0482357 0
0.416357 -0.455462 0
0.0169142 -0.0360113 0
-1.45773 -4.19612 0
0.0184771 -0.0756112 0
0.875914 -0.775604 0
-0.193324 -0.57837 0
2.60941 -2.31126 0
0.375554 -0.225541 0
0.246646 -1.57599 0
0.371235 -0.360174 0
0.42423 -1.66719 0
0.0459026 -0.288148 0
0.23695 -0.268416 0
-0.439718 -4.26498 0
-0.341635 -1.54595 0
-0.0587298 -1.74858 0
0.517741 -0.429506 0
0.569815 -1.89997 0
-0.0069297 -0.0299643 0
0.678243 -0.720941 0
-0.035942 -1.62763 0
0.209569 -2.84101 0
0.0341816 -0.186838 0
0.0572406 -0.190098 0
-0.780285 -4.91237 0
0.596082 -4.34445 0
0.442669 -6.53201 0
-1.76891 -1.80972 0
-0.0314827 -0.0213825 0
-7.17321 -5.76397 0
-0.111809 -0.00216412 0
-1.32314 -6.51138 0
-6.34247e-05 -0.000708436 0
-0.00683296 -0.0335618 0
0.00737782 -0.0485236 0
0.000542693 -0.00160995 0
-0.305642 -0.361082 0
-0.0108805 -0.0138697 0
-0.00819058 -0.0134142 0
-0.0148644 -0.0249294 0
-0.109221 -2.26718 0
-1.2075 -3.67564 0
-0.901182 -0.283861 0
-4.14297 -2.80046 0
-0.14444 -0.100902 0
-0.0600566 -0.185936 0
-0.661997 -6.71678 0
-1.47032 -0.476824 0
-0.0818155 -0.326958 0
-0.185165 -5.01129 0
0.0376698 -2.14308 0
-0.600553 -0.357972 0
0.0292503 -0.105737 0
-0.48676 -0.868775 0
-0.176809 -0.424764 0
-1.24214 -4.96132 0
-0.429714 -1.38741 0
-0.00107123 -0.00619981 0
-0.0878317 -0.207689 0
-0.126482 -0.0364735 0
-0.00318138 -0.00491735 0
-2.75036 -2.29335 0
-0.144145 -0.150635 0
-1.29999 -1.93763 0
0.287815 -0.651917 0
-0.188458 -0.428171 0
0.000472648 -0.00491932 0
0.234974 -2.03852 0
0.0801399 -0.140464 0
-0.0148008 -0.0170842 0
-0.000884377 -0.00165308 0
-4.30126 -7.21367 0
0.19017 -5.95192 0
-0.849166 -0.664912 0
0.000464775 -0.0183911 0
0.796663 -2.23 0
-0.00661576 -0.0135679 0
-0.144233 -0.505902 0
-1.47358 -2.43674 0
-0.00193292 -0.0782558 0
-1.94062 -4.96961 0
-0.372936 -0.257088 0
0.0590331 -2.12226 0
-0.208323 -0.16694 0
0.25218 -1.26334 0
-0.00329427 -0.0178406 0
0.419258 -1.45566 0
-0.356149 -0.229386 0
-0.0945362 -2.00601 0
0.516823 -0.94586 0
-0.474077 -0.399943 0
-0.111729 -0.887039 0
1.7707 -4.70266 0
-0.110918 -0.204473 0
-0.313759 -0.345429 0
0.226524 -0.91407 0
0.466165 -1.06392 0
-0.123085 -1.27622 0
0.211542 -0.697994 0
-1.49837 -0.807053 0
-0.12808 -0.282854 0
0.00941658 -0.571145 0
-0.0784108 -0.184475 0
2.41024 -3.04738 0
-0.255069 -0.319486 0
0.492826 -0.211938 0
0.021733 -0.574273 0
-0.10323 -0.161787 0
0.86977 -0.960632 0
-0.712475 -0.491334 0
2.09184 -4.26451 0
-0.151047 -0.144318 0
-0.044301 -0.0858193 0
0.0297686 -0.216959 0
0.112169 -2.5409 0
-0.0468468 -0.906288 0
-0.213049 -0.13547 0
0.360201 -1.02011 0
-0.0382025 -0.0288727 0
0.115613 -0.135667 0
-0.0940421 -2.59386 0
-0.0671514 -0.300831 0
0.056898 -0.135727 0
-0.27391 -0.267295 0
0.481752 -0.512402 0
3.15361 -1.76371 0
-0.34008 -0.253176 0
-0.044356 -0.140812 0
-0.176832 -2.29276 0
0.0436984 -0.327987 0
-0.0181773 -0.350817 0
0.0651427 -0.286136 0
-0.064308 -0.128238 0
-2.22332 -0.589146 0
0.309032 -2.13816 0
-0.0292113 -0.102924 0
0.800585 -6.43433 0
-0.128324 -0.749128 0
5.18806 -1.5841 0
-0.140525 -0.2035 0
-2.89026 -1.89116 0
0.434937 -2.10627 0
4.44212 -2.87063 0
0.0645927 -0.359051 0
1.6049 -3.93875 0
0.219192 -0.392926 0
0.203238 -1.59037 0
-0.285784 -0.857423 0
-0.150522 -1.70882 0
1.73792 -2.68953 0
