# vtk DataFile Version 2.0
Unstructured Grid by M++
ASCII
DATASET UNSTRUCTURED_GRID
POINTS 81 float
  1.000000   0.625000 0
  0.750000   0.375000 0
  1.000000   0.000000 0
  0.875000   0.875000 0
  0.750000   0.125000 0
  1.000000   1.000000 0
  0.875000   0.250000 0
  0.625000   0.875000 0
  1.000000   0.750000 0
  0.875000   0.000000 0
  1.000000   0.250000 0
  0.625000   0.375000 0
  0.875000   0.500000 0
  0.625000   0.625000 0
  1.000000   0.500000 0
  0.750000   0.500000 0
  0.750000   1.000000 0
  1.000000   0.125000 0
  0.625000   0.250000 0
  0.750000   0.750000 0
  0.625000   0.000000 0
  0.125000   0.375000 0
  0.000000   0.500000 0
  0.125000   0.625000 0
  0.625000   1.000000 0
  1.000000   0.875000 0
  0.875000   0.125000 0
  0.500000   0.250000 0
  0.625000   0.500000 0
  0.250000   0.625000 0
  0.000000   0.625000 0
  0.375000   0.500000 0
  0.375000   0.000000 0
  0.000000   0.125000 0
  0.125000   0.875000 0
  0.875000   1.000000 0
  0.750000   0.250000 0
  0.375000   0.375000 0
  0.250000   0.375000 0
  0.625000   0.750000 0
  0.125000   0.125000 0
  0.500000   0.000000 0
  0.250000   0.875000 0
  0.125000   0.500000 0
  0.500000   0.375000 0
  0.125000   0.000000 0
  0.250000   0.750000 0
  0.250000   0.500000 0
  0.000000   0.875000 0
  0.875000   0.625000 0
  0.500000   0.750000 0
  0.750000   0.625000 0
  0.250000   0.000000 0
  0.375000   0.750000 0
  0.750000   0.875000 0
  0.625000   0.125000 0
  0.250000   0.250000 0
  0.375000   1.000000 0
  0.375000   0.250000 0
  0.000000   0.375000 0
  0.500000   1.000000 0
  0.875000   0.750000 0
  0.750000   0.000000 0
  0.375000   0.125000 0
  0.500000   0.875000 0
  0.000000   0.000000 0
  0.125000   0.750000 0
  0.500000   0.625000 0
  0.125000   0.250000 0
  0.500000   0.125000 0
  0.250000   1.000000 0
  0.250000   0.125000 0
  0.000000   1.000000 0
  0.375000   0.875000 0
  0.000000   0.750000 0
  0.375000   0.625000 0
  0.000000   0.250000 0
  0.125000   1.000000 0
  1.000000   0.375000 0
  0.500000   0.500000 0
  0.875000   0.375000 0
CELLS 64 320
4 56 71 58 63
4 27 58 69 63
4 41 69 32 63
4 76 33 68 40
4 27 44 58 37
4 79 31 44 37
4 56 38 68 21
4 56 58 38 37
4 52 32 71 63
4 47 38 31 37
4 76 68 59 21
4 22 59 43 21
4 65 45 33 40
4 47 43 38 21
4 52 71 45 40
4 56 68 71 40
4 74 30 66 23
4 46 66 29 23
4 22 43 30 23
4 72 48 77 34
4 46 53 42 73
4 50 64 53 73
4 70 42 57 73
4 74 66 48 34
4 46 42 66 34
4 47 29 43 23
4 70 77 42 34
4 60 57 64 73
4 79 67 31 75
4 47 31 29 75
4 50 53 67 75
4 46 29 53 75
4 10 78 6 80
4 36 6 1 80
4 15 1 12 80
4 36 4 6 26
4 14 12 78 80
4 2 17 9 26
4 36 18 4 55
4 15 28 1 11
4 62 4 20 55
4 10 6 17 26
4 27 18 44 11
4 62 9 4 26
4 27 69 18 55
4 36 1 18 11
4 41 20 69 55
4 79 44 28 11
4 16 24 54 7
4 19 54 39 7
4 50 39 64 7
4 8 25 61 3
4 60 64 24 7
4 79 28 67 13
4 19 51 61 49
4 8 61 0 49
4 15 51 28 13
4 19 39 51 13
4 50 67 39 13
4 19 61 54 3
4 14 0 12 49
4 5 35 25 3
4 15 12 51 49
4 16 54 35 3
CELL_TYPES 64
8
8
8
8
8
8
8
8
8
8
8
8
8
8
8
8
8
8
8
8
8
8
8
8
8
8
8
8
8
8
8
8
8
8
8
8
8
8
8
8
8
8
8
8
8
8
8
8
8
8
8
8
8
8
8
8
8
8
8
8
8
8
8
8
CELL_DATA 64
VECTORS vector_value float
-0.12617 -1.28545 0
-0.234728 -0.342511 0
-0.0193843 -0.336277 0
0.653172 -2.65407 0
-0.120816 -0.322923 0
-0.363154 -1.08389 0
0.0896139 -0.665805 0
-0.235219 -1.05527 0
-0.0246455 -1.2834 0
-0.651406 -0.570879 0
0.295265 -3.72655 0
-0.718519 -3.24726 0
0.0697326 -1.67996 0
-0.722749 -0.980707 0
0.12475 -2.78771 0
0.755717 -1.6963 0
0.000283854 -1.67864 0
-0.0567295 -0.571773 0
-0.279237 -1.91661 0
-0.170284 -1.11288 0
0.0208224 -0.190845 0
0.107522 -1.59638 0
0.158607 -0.555909 0
-0.17877 -1.65964 0
-0.0832002 -0.546572 0
-1.29331 -1.54123 0
-0.367116 -1.07758 0
0.0921957 -1.46019 0
-0.800215 -1.96115 0
-0.974593 -0.346764 0
-1.08385 -1.62804 0
-0.78087 -0.666308 0
-0.0446796 -0.178253 0
-0.0422319 -0.0517566 0
-0.165367 -0.30905 0
-0.0721276 -0.146902 0
-0.00534415 -0.192733 0
-0.00111846 -0.0505616 0
-0.136756 -1.16792 0
-0.153148 -0.675922 0
-0.0191006 -0.98823 0
-0.0251741 -0.0657793 0
0.0616934 -0.795869 0
-0.0027511 -0.130639 0
-0.227942 -0.641079 0
0.0109887 -1.20357 0
-0.0366577 -0.743227 0
0.0823975 -0.93956 0
0.249332 -0.709293 0
-0.558702 -0.538447 0
-0.192082 -1.20638 0
0.0969301 -1.24545 0
-0.0736212 -0.711192 0
-0.208075 -1.01686 0
-0.650426 -0.442728 0
-0.35309 -1.085 0
-0.216842 -0.223353 0
-1.00364 -0.372038 0
-1.37078 -1.55547 0
-0.206547 -1.01629 0
-0.174616 -0.459764 0
0.0321863 -1.04122 0
-0.500227 -0.534269 0
0.255101 -1.33173 0
