# vtk DataFile Version 2.0
Unstructured Grid by M++
ASCII
DATASET UNSTRUCTURED_GRID
POINTS 4225 float
  0.921875   0.593750 0
  0.921875   0.609375 0
  0.656250   0.609375 0
  0.671875   0.609375 0
  0.656250   0.546875 0
  0.671875   0.546875 0
  0.656250   0.562500 0
  0.656250   0.578125 0
  0.656250   0.593750 0
  0.671875   0.593750 0
  0.671875   0.562500 0
  0.671875   0.578125 0
  0.671875   0.625000 0
  0.671875   0.640625 0
  0.906250   0.578125 0
  0.890625   0.578125 0
  0.546875   0.515625 0
  1.000000   0.890625 0
  0.515625   0.640625 0
  0.515625   0.625000 0
  1.000000   0.875000 0
  0.515625   0.656250 0
  0.515625   0.687500 0
  0.515625   0.671875 0
  1.000000   0.921875 0
  0.546875   0.531250 0
  0.546875   0.546875 0
  0.546875   0.562500 0
  0.796875   0.531250 0
  0.953125   0.890625 0
  0.953125   0.875000 0
  0.953125   0.843750 0
  0.953125   0.828125 0
  0.953125   0.812500 0
  0.531250   0.562500 0
  0.531250   0.546875 0
  0.515625   0.562500 0
  0.515625   0.546875 0
  1.000000   0.812500 0
  0.781250   0.546875 0
  0.765625   0.546875 0
  0.859375   0.921875 0
  0.921875   0.671875 0
  0.609375   0.906250 0
  0.671875   0.656250 0
  0.609375   0.921875 0
  0.671875   0.671875 0
  0.671875   0.984375 0
  0.671875   1.000000 0
  0.906250   0.984375 0
  0.906250   1.000000 0
  0.921875   0.984375 0
  0.921875   1.000000 0
  0.859375   0.609375 0
  1.000000   0.781250 0
  0.515625   0.531250 0
  0.531250   0.531250 0
  0.531250   0.515625 0
  0.515625   0.515625 0
  1.000000   0.750000 0
  0.765625   0.531250 0
  0.781250   0.531250 0
  0.781250   0.515625 0
  0.765625   0.515625 0
  0.859375   0.875000 0
  0.921875   0.625000 0
  0.859375   0.890625 0
  0.921875   0.640625 0
  0.671875   0.968750 0
  0.671875   0.953125 0
  0.921875   0.968750 0
  0.921875   0.953125 0
  0.859375   0.593750 0
  0.859375   0.578125 0
  0.875000   0.578125 0
  0.828125   0.890625 0
  0.890625   0.640625 0
  0.593750   0.890625 0
  0.656250   0.640625 0
  0.593750   0.875000 0
  0.656250   0.625000 0
  0.578125   0.890625 0
  0.640625   0.640625 0
  0.578125   0.875000 0
  0.640625   0.625000 0
  0.968750   0.890625 0
  0.984375   0.890625 0
  0.968750   0.812500 0
  0.968750   0.828125 0
  0.984375   0.812500 0
  0.984375   0.828125 0
  1.000000   0.828125 0
  0.656250   0.953125 0
  0.640625   0.953125 0
  0.890625   0.968750 0
  0.906250   0.968750 0
  0.906250   0.953125 0
  0.890625   0.953125 0
  0.531250   0.703125 0
  0.531250   0.718750 0
  0.546875   0.718750 0
  0.546875   0.703125 0
  0.593750   0.578125 0
  0.562500   0.578125 0
  0.578125   0.578125 0
  0.843750   0.578125 0
  0.828125   0.578125 0
  0.828125   0.812500 0
  0.890625   0.562500 0
  0.828125   0.796875 0
  0.953125   0.906250 0
  0.953125   0.921875 0
  0.531250   0.859375 0
  0.593750   0.609375 0
  0.531250   0.843750 0
  0.593750   0.593750 0
  0.515625   0.843750 0
  0.578125   0.593750 0
  0.515625   0.859375 0
  0.578125   0.609375 0
  0.937500   0.859375 0
  1.000000   0.609375 0
  0.921875   0.859375 0
  0.984375   0.609375 0
  0.937500   0.796875 0
  0.921875   0.796875 0
  0.984375   0.546875 0
  0.562500   0.812500 0
  0.843750   0.796875 0
  0.843750   0.812500 0
  0.859375   0.796875 0
  0.859375   0.812500 0
  1.000000   0.906250 0
  0.984375   0.906250 0
  0.968750   0.906250 0
  0.968750   0.921875 0
  0.984375   0.921875 0
  0.593750   0.921875 0
  0.656250   0.671875 0
  0.593750   0.906250 0
  0.656250   0.656250 0
  0.578125   0.906250 0
  0.640625   0.656250 0
  0.578125   0.921875 0
  0.640625   0.671875 0
  1.000000   0.843750 0
  0.984375   0.843750 0
  0.968750   0.843750 0
  0.968750   0.859375 0
  0.968750   0.875000 0
  1.000000   0.859375 0
  0.984375   0.859375 0
  0.984375   0.875000 0
  0.656250   1.000000 0
  0.656250   0.984375 0
  0.656250   0.968750 0
  0.640625   0.968750 0
  0.640625   1.000000 0
  0.640625   0.984375 0
  0.843750   0.921875 0
  0.906250   0.671875 0
  0.843750   0.906250 0
  0.906250   0.656250 0
  0.828125   0.906250 0
  0.890625   0.656250 0
  0.828125   0.921875 0
  0.890625   0.671875 0
  0.781250   0.859375 0
  0.843750   0.609375 0
  0.781250   0.843750 0
  0.843750   0.593750 0
  0.765625   0.843750 0
  0.828125   0.593750 0
  0.765625   0.859375 0
  0.828125   0.609375 0
  0.968750   0.609375 0
  0.906250   0.859375 0
  0.953125   0.609375 0
  0.890625   0.859375 0
  0.937500   0.609375 0
  0.875000   0.859375 0
  0.562500   0.593750 0
  0.546875   0.593750 0
  0.531250   0.593750 0
  0.531250   0.609375 0
  0.562500   0.609375 0
  0.546875   0.609375 0
  0.609375   0.625000 0
  0.546875   0.875000 0
  0.609375   0.640625 0
  0.546875   0.890625 0
  0.625000   0.640625 0
  0.562500   0.890625 0
  0.625000   0.625000 0
  0.562500   0.875000 0
  0.921875   0.843750 0
  0.984375   0.593750 0
  0.937500   0.843750 0
  1.000000   0.593750 0
  0.921875   0.812500 0
  0.921875   0.828125 0
  0.984375   0.578125 0
  0.937500   0.828125 0
  1.000000   0.578125 0
  0.937500   0.812500 0
  1.000000   0.562500 0
  0.578125   0.828125 0
  0.921875   0.781250 0
  0.937500   0.781250 0
  1.000000   0.531250 0
  0.921875   0.765625 0
  0.984375   0.515625 0
  0.937500   0.765625 0
  0.625000   0.656250 0
  0.562500   0.906250 0
  0.609375   0.656250 0
  0.546875   0.906250 0
  0.625000   0.671875 0
  0.562500   0.921875 0
  0.609375   0.671875 0
  0.546875   0.921875 0
  0.859375   0.781250 0
  0.859375   0.765625 0
  0.828125   0.671875 0
  0.765625   0.921875 0
  0.828125   0.734375 0
  0.765625   0.984375 0
  0.875000   0.843750 0
  0.937500   0.593750 0
  0.890625   0.843750 0
  0.953125   0.593750 0
  0.906250   0.843750 0
  0.968750   0.593750 0
  0.906250   0.828125 0
  0.968750   0.578125 0
  0.937500   0.578125 0
  0.953125   0.578125 0
  0.906250   0.765625 0
  0.875000   0.765625 0
  0.953125   0.515625 0
  0.531250   0.781250 0
  0.671875   0.890625 0
  0.531250   0.921875 0
  0.953125   0.656250 0
  0.828125   0.781250 0
  0.843750   0.781250 0
  0.703125   0.984375 0
  0.687500   0.984375 0
  0.843750   0.875000 0
  0.906250   0.625000 0
  0.671875   0.781250 0
  0.734375   0.531250 0
  0.906250   0.609375 0
  0.671875   0.765625 0
  0.734375   0.515625 0
  0.906250   0.593750 0
  0.890625   0.593750 0
  0.875000   0.593750 0
  0.828125   0.875000 0
  0.890625   0.625000 0
  0.656250   0.781250 0
  0.718750   0.531250 0
  0.890625   0.609375 0
  0.656250   0.765625 0
  0.718750   0.515625 0
  0.875000   0.609375 0
  0.640625   0.765625 0
  0.703125   0.515625 0
  0.812500   0.921875 0
  0.875000   0.671875 0
  0.812500   0.875000 0
  0.875000   0.625000 0
  0.640625   0.781250 0
  0.703125   0.531250 0
  0.812500   0.515625 0
  0.750000   0.828125 0
  0.812500   0.578125 0
  0.687500   1.000000 0
  0.937500   0.656250 0
  0.875000   0.906250 0
  0.531250   0.656250 0
  0.890625   0.906250 0
  0.906250   0.906250 0
  0.562500   0.656250 0
  0.906250   0.890625 0
  0.562500   0.640625 0
  0.968750   0.625000 0
  0.906250   0.875000 0
  0.562500   0.625000 0
  0.937500   0.640625 0
  0.875000   0.890625 0
  0.890625   0.890625 0
  0.546875   0.640625 0
  0.953125   0.625000 0
  0.890625   0.875000 0
  0.546875   0.625000 0
  0.546875   0.687500 0
  0.890625   0.937500 0
  0.937500   0.625000 0
  0.875000   0.875000 0
  0.531250   0.625000 0
  0.531250   0.640625 0
  0.546875   0.656250 0
  0.937500   0.968750 0
  0.687500   0.968750 0
  0.953125   0.968750 0
  0.703125   0.968750 0
  0.968750   0.968750 0
  0.718750   0.968750 0
  0.718750   0.906250 0
  0.968750   0.953125 0
  0.718750   0.953125 0
  0.968750   0.937500 0
  0.859375   0.906250 0
  0.921875   0.656250 0
  0.718750   0.937500 0
  0.828125   0.531250 0
  0.937500   0.953125 0
  0.687500   0.953125 0
  0.953125   0.953125 0
  0.703125   0.953125 0
  0.703125   0.890625 0
  0.843750   0.515625 0
  0.953125   0.937500 0
  0.953125   1.000000 0
  0.703125   0.937500 0
  0.937500   0.937500 0
  0.687500   0.937500 0
  0.703125   0.906250 0
  0.718750   0.890625 0
  0.687500   0.890625 0
  0.687500   0.765625 0
  0.750000   0.515625 0
  0.687500   0.781250 0
  0.750000   0.531250 0
  0.859375   0.937500 0
  0.921875   0.687500 0
  0.687500   0.796875 0
  0.750000   0.546875 0
  0.578125   0.750000 0
  0.515625   1.000000 0
  0.843750   0.765625 0
  0.578125   0.734375 0
  0.515625   0.984375 0
  0.562500   0.734375 0
  0.828125   0.750000 0
  0.765625   1.000000 0
  0.562500   0.750000 0
  0.562500   0.718750 0
  0.578125   0.515625 0
  0.921875   0.703125 0
  0.921875   0.718750 0
  0.593750   0.515625 0
  0.687500   0.875000 0
  0.750000   0.625000 0
  0.578125   0.531250 0
  0.921875   0.750000 0
  0.703125   0.875000 0
  0.765625   0.625000 0
  0.593750   0.531250 0
  0.875000   0.968750 0
  0.937500   0.718750 0
  0.703125   0.828125 0
  0.765625   0.578125 0
  0.937500   0.734375 0
  0.703125   0.812500 0
  0.765625   0.562500 0
  0.890625   0.687500 0
  0.828125   0.937500 0
  0.656250   0.796875 0
  0.718750   0.546875 0
  0.890625   0.718750 0
  0.828125   0.968750 0
  0.906250   0.796875 0
  0.718750   0.828125 0
  0.781250   0.578125 0
  0.890625   0.703125 0
  0.828125   0.953125 0
  0.656250   0.859375 0
  0.906250   0.781250 0
  0.968750   0.531250 0
  0.546875   0.796875 0
  0.671875   0.796875 0
  0.734375   0.546875 0
  0.843750   0.953125 0
  0.906250   0.703125 0
  0.671875   0.875000 0
  0.718750   0.812500 0
  0.781250   0.562500 0
  0.875000   0.812500 0
  0.531250   0.890625 0
  0.593750   0.640625 0
  0.937500   0.890625 0
  0.875000   0.781250 0
  0.609375   0.703125 0
  0.546875   0.953125 0
  0.890625   0.796875 0
  0.625000   0.718750 0
  0.562500   0.968750 0
  0.906250   0.812500 0
  0.734375   0.859375 0
  0.796875   0.609375 0
  0.718750   0.875000 0
  0.781250   0.625000 0
  0.750000   0.859375 0
  0.812500   0.609375 0
  0.812500   0.546875 0
  0.750000   0.812500 0
  0.734375   0.843750 0
  0.796875   0.593750 0
  0.750000   0.843750 0
  0.812500   0.593750 0
[...]
CELL_DATA 4096
SCALARS scalar_value float 1
LOOKUP_TABLE default
148.91
380.974
112.956
49.1824
1973.19
853.088
579.666
1547.47
1183.61
1213.72
2801.68
2561.11
118.271
450.029
330.761
87.7337
12.376
10.1929
9.13447
7.97118
20.2519
14.5972
18.7997
15.2141
23.2469
17.7463
33.4803
59.6376
0.0721877
0.0417467
0.0590162
0.0953016
11.7286
13.6812
17.7877
10.2238
0.0349483
0.0198538
0.00911013
0.0292364
0.00165847
0.00153081
0.001765
0.00247311
3.99513
2.2046
2.23214
4.15145
0.00517318
0.008565
0.0305815
0.00804766
19.0673
18.74
16.6245
10.6595
0.00294698
0.00588298
0.00517678
0.00406764
10.7885
10.8857
10.8557
9.84105
0.03908
0.0408597
0.0160009
0.0102162
0.225278
0.340328
0.775242
0.692024
6.92371
10.2224
4.90586
4.54668
2.60146
5.3557
9.44965
5.76341
0.00173616
0.00127458
0.00124708
0.00218783
0.00191188
0.00240063
0.00187745
0.00160286
34.903
23.4017
11.2763
20.2821
4.28579
5.74998
1.60411
0.959669
0.00224914
0.00189151
0.00316239
0.00260511
0.000963816
0.000929743
0.00136118
0.00160137
19.6877
21.8151
62.6137
65.6143
14.587
12.8412
12.0646
28.1567
0.00384225
0.00419678
0.00179589
0.0020552
0.00253578
0.00284269
0.00248151
0.00284396
5.74444
9.56713
9.05408
2.69119
1062.4
1205.45
555.219
369.203
0.00290509
0.00172926
0.00342646
0.00385908
0.00686207
0.00310214
0.00256332
0.00406984
1.03178
0.625479
1.39386
2.2242
6.45089
7.11676
8.41165
11.307
1892.79
1899.51
1425.9
1472.9
8.67093
10.1433
14.5715
12.6609
17.1413
10.1485
7.36889
17.7004
2596.64
3084.99
4939.84
3470.88
0.499558
0.469632
0.234316
0.317977
543.579
1355.91
1378.9
553.237
0.136275
0.264777
0.126899
0.0517017
5.90088
5.24729
5.62184
9.15198
5.73974
6.06826
5.75525
6.4057
1040.14
1559.8
401.468
383.984
0.0535014
0.0826817
0.0864908
0.0582622
13.4364
9.11329
11.5299
24.0649
4.47722
5.06185
5.85626
6.7206
5920.88
3652.86
2158.47
3809.3
0.123046
12.1417
8.79522
0.00451191
0.50567
0.294644
61.4677
135.069
555.527
128.033
416.485
844.391
14.4446
429.06
13.3642
3877.76
33.5792
2788.79
32.0734
2759.3
17.3668
3781.93
27.6151
323.005
262.896
182.875
242.031
199.398
344.518
0.787841
241.489
264.554
45.0995
17.1508
29.415
14.386
63.8474
33.0854
135.547
61.3823
25.9057
26.723
0.21581
5.41259
0.383769
3.1198
52.9566
12.5884
23.5951
12.4559
6.28455
15.5168
12.1283
1.40481
14.1376
1.90535
15.3238
11.3747
11.6871
9.71918
0.0240159
2.69111
0.0837652
2.86368
0.134503
2.28807
11.712
15.6224
4.06229
73.6698
88.2534
0.0454392
1.374
34.7862
28.0773
105.247
34.8528
83.7673
45.3712
34.5524
1097.95
52.1928
777.287
62.2368
23.6912
94.0485
1650.27
42.2575
2213.4
0.00267067
0.16009
0.268425
200.322
54.3368
241.923
26.722
213.737
41.1274
234.116
2.1138
12.1224
288.665
14.2111
136.246
33.9947
445.138
13.9715
6.63056
38.8853
421.793
12.368
23.4289
18.14
0.0544342
8.46111
1.7297
14.6283
2007.51
44.8376
3081.5
33.3807
2319.39
42.2999
296.4
12.5752
18.4333
19.9233
822.298
11.2085
24.5043
24.4565
0.0837558
7.63236
5.35479
14.0642
0.00758662
13.8937
46.9665
0.0029
0.00314889
0.0611031
5.97255
25.2054
16.0362
0.0101914
51.1095
161.045
36.628
222.071
234.741
0.00505874
167.528
0.00477625
5.60642
13.0856
1.43614
10.0363
6.72529
15.6332
0.521448
13.8556
0.212371
15.5013
1.02767
11.853
0.0635278
27.6376
25.2074
44.0833
31.7576
18.5566
7.36434
0.910642
7.36493
0.618635
7.47797
0.211739
6.03841
0.272767
1.18389
78.4695
104.047
0.441806
52.7567
5.27389
0.640209
4.7031
0.878709
167.213
1780.4
0.0231298
4.98423
1.1508
15.2681
99.8723
528.34
15.5767
1803.09
3.39914
16.9475
115.514
797.843
12.224
1083.81
20.5016
1179.12
187.986
1187.24
17.7339
2277.06
11.1266
3.66297
8.11787
2.01782
13.6801
7.61288
15.6033
12.0977
11.1051
3.99849
8.53074
1.55871
7.55941
1.89734
22.4628
13.2388
22.5957
2.69912
192.764
66.0062
0.076896
92.3927
53.7138
82.9769
0.0592474
62.7101
44.3484
0.20952
22.3609
136.129
0.00300215
0.266138
0.508575
52.4675
0.292066
0.0843145
0.00638064
0.298375
0.129029
0.138736
0.553954
131.579
257.23
528.479
10.7943
517.957
10.8631
710.371
12.8656
1579.55
9.10011
1349.48
211.907
106.349
12.9285
0.298149
91.2003
0.185972
0.990765
74.8833
5.12335
0.00918929
1.2047
0.0108771
29.9353
65.1216
11.5527
4.86806
0.0544954
0.0933114
0.576531
0.262286
18.2883
111.367
0.742871
0.00400114
0.0233971
0.173399
0.0579421
21.6128
0.944715
49.7618
36.8866
0.817608
2299.56
2.82328
0.171623
9.16906
0.875937
1054.62
1.35602
140.609
13.8915
137.077
6.13954
0.00388138
48.3113
0.404841
8.01166
3.41269
1173.62
1.16284
0.0841748
26.8766
2.87553
62.6595
1.16616
428.576
22.215
0.0896832
0.0114985
44.1023
0.0902666
149.353
0.458281
0.0134846
2.40914
32.9464
219.792
0.112333
48.3576
999.711
63.0993
0.141762
79.7037
0.23987
3.78986
90.2645
12.2655
189.218
20.1224
125.494
0.0613006
12.7968
29.1774
22.98
226.378
3.16837
0.0594594
0.158585
47.4949
0.684878
2.64258
462.403
18.528
230.83
39.0681
0.130412
0.00325334
111.007
107.798
0.472244
0.0196823
1.55375
0.00277816
48.9012
105.951
57.6232
4.92252
179.53
0.00373033
43.2724
1.37051
0.107384
47.4568
291.681
9.07679
81.6742
0.211589
7.16658
13.3782
0.0306118
22.8741
1.70969
61.4952
23.4977
1.9036
0.18152
0.757792
30.1434
2.50236
27.449
1.58871
0.0948817
26.3655
0.668734
0.776592
15.7661
0.0084307
23.882
114.29
0.674881
83.3067
3.15293
0.216107
24.0992
1.57713
0.11029
15.1594
0.0534528
30.8504
0.310061
0.471077
0.0380295
85.2278
60.5357
16.551
269.036
0.433913
0.886124
0.0596941
54.3045
0.397239
47.7498
19.4911
150.063
31.9782
0.0289302
17.762
61.8089
7.85742
169.472
13.1451
282.498
0.7467
29.5508
44.059
0.0890966
9.68229
7.9231
10.964
389.383
0.00273123
1.51848
13.4014
100.279
0.00303949
4.29136
7.46075
0.00216724
3734.76
305.278
3014.27
161.045
5310.6
175.069
4481.83
293.823
3519.55
59.8065
0.193967
16.812
6374.6
160.841
5936.03
108.155
0.101717
0.740971
10.2222
258.924
3822.61
48.6255
0.0106596
3363.75
52.1689
3579.39
35.6266
5702.81
84.3172
5614.97
139.102
0.479128
22.0046
162.217
2359.68
338.79
61.138
235.967
3934.9
296.925
5292.22
214.9
0.297553
17.7578
1.14472
24.9795
238.3
2944.33
288.268
2.62256
0.011316
29.6658
0.301929
0.532047
0.002357
1.95103
0.00370915
4.05857
0.00559561
0.696263
0.00530808
75.491
13.8699
0.015261
149.846
60.6359
0.0370285
127.601
78.9673
0.0263012
0.597507
59.5627
350.028
0.339377
0.0137337
27.604
133.997
0.877227
46.3185
112.108
2.75357
0.00756087
23.7721
0.372924
11.2448
0.0239437
49.116
10.6197
0.0174243
113.523
38.2903
56.7805
1.9271
58.278
41.6287
21.8243
0.174059
29.169
21.0083
71.9231
0.571379
47.4948
2.14434
242.242
39.2633
540.167
17.3732
211.941
11.9389
173.543
31.1669
0.0148991
203.589
0.0722607
180.188
0.141844
35.5539
0.032936
54.7763
28.9228
0.468038
12.1992
1.39227
15.6007
11.7306
3.16196
14.5201
0.59805
9.42356
0.0283906
0.0340267
0.0253749
0.0142722
1650.68
1207.69
696.532
822.85
0.013955
0.00838674
0.00500875
0.00824435
111.21
66.5605
58.6983
44.5579
69.1029
37.9621
166.046
81.4787
22.7947
56.2113
20.333
58.9098
15.9687
117.071
29.5839
139.747
15.4096
4.95374
5.15359
16.669
3.23311
8.33073
6.40729
2.96355
18.5261
45.211
28.3297
17.8541
14.9045
19.1096
11.4398
38.8336
0.0835351
0.105987
0.0763621
0.0598911
2.66298
5.36966
3.0044
2.14417
74.4624
36.4251
84.6386
28.0569
100.334
14.9853
61.1004
21.8592
0.18071
0.627594
1.43357
0.337025
43.776
12.3534
21.2076
94.025
34.67
143.851
70.4914
28.8777
17.808
276.905
460.25
389.393
196.873
3.32561
35.0494
3.7359
33.5628
8.72886
34.1434
6.70487
28.8111
15.0796
116.713
8.92911
139.106
10.5325
292.725
20.4164
336.682
38.2267
92.9077
36.0671
149.027
69.3472
278.512
71.431
200.936
0.0146947
0.00989868
0.0076598
0.0159849
26.8291
24.1641
101.479
33.6104
45.6413
20.7626
17.4354
14.3615
27.0024
1.3509
20.2927
3.78067
23.1663
5.96578
28.3926
2.44259
1148.72
50.8951
403.117
53.1195
148.382
38.5828
309.361
49.0108
17.7566
14.933
4.2266
2.52327
1.34567
2.36913
5.13274
3.13056
1.21399
1.74267
1.60186
1.57582
7.79989
0.119729
9.75748
0.474964
8.78876
0.29891
9.65674
0.0799747
12.1868
14.0927
9.63506
24.9199
13.4039
13.2311
16.0391
10.8455
0.155095
0.0857113
0.116073
0.164042
0.446361
0.481719
2.26043
1.61461
15.8267
34.9969
10.9878
4.91619
76.0117
108.644
20.8788
22.9157
9.19366
151.341
10.7971
387.696
8.44161
311.228
10.3473
137.506
21.4037
0.0564151
137.752
29.8726
321.714
41.298
311.812
24.9849
167.411
0.0261221
0.0230588
0.00839189
0.0110049
12.9867
18.4177
11.2217
18.4243
33.957
25.0146
39.2253
30.4378
0.0128544
0.0121414
0.024127
0.0417341
0.0303605
0.109624
0.214111
0.0695465
480.555
234.63
359.209
1013.14
0.601845
24.9098
1.12302
47.9266
0.58129
47.6806
0.356048
27.4148
29.9131
20.1594
26.4943
40.2148
43.6216
101.604
187.95
81.8738
4.31288
8.6044
17.1247
9.39896
14.781
8.8626
6.16369
11.5845
141.488
54.2017
52.9245
121.523
0.147778
0.0887188
0.0709287
16.657
4.96447
3.72032
10.2378
12.0286
5.71426
12.0137
12.4941
7.83598
9.40622
14.8594
18.3425
2.31152
3.02418
2.77096
2.15104
19.3347
9.00496
16.5912
29.2326
22.6766
25.5948
16.6476
17.9145
50.8871
38.85
64.668
59.5466
90.1589
77.7231
80.4975
116.545
50.778
35.9971
24.6597
45.211
60.1029
25.7527
31.8874
51.1324
17.4688
12.4904
13.9545
9.56955
44.35
39.5377
54.8141
65.7609
15.5929
15.3364
15.8651
16.7059
15.9451
17.7871
15.7767
25.0733
17.9652
38.6138
25.7048
13.5152
22.3835
16.8789
17.7858
20.3635
19.1532
24.4126
17.4067
19.8347
16.0909
26.8658
16.4507
14.0504
29.884
24.1525
45.4901
37.754
2457.52
4325.7
4831.42
4555.43
1875.17
3971.92
1691.17
772.433
5459.9
5866.82
2353.67
4267.33
4814.61
4655
3615.95
9.66423
13.7767
23.9297
21.4145
68.6916
38.6951
43.1982
67.2809
7.24965
10.9068
6.942
6.29962
29.15
15.9005
11.4159
14.9523
6.94923
10.2043
25.2717
12.8308
25.4825
21.3617
44.6688
37.0683
25.1249
17.0551
30.1948
50.5948
24.9294
33.197
38.2563
26.3457
26.6395
27.8837
26.8424
23.2839
83.433
57.8122
32.4327
50.0505
50.9093
36.5865
47.4649
60.5986
454.734
655.04
657.563
510.196
626.036
918.013
786.167
409.35
92.6849
190.575
215.69
65.3126
1030.68
1426.75
2918.58
2229.3
108.834
165.855
85.2847
89.1721
9.87343
8.74601
13.6704
18.4359
54.8494
160.849
74.7549
60.0659
316.857
743.538
368.674
209.673
67.9745
154.949
194.83
85.7532
85.6163
123.311
114.751
98.8658
9.20912
13.3019
8.47451
9.03761
32.7225
91.1846
77.7597
34.7207
170.514
146.013
34.1071
42.0707
3941.42
3540.73
2295.87
2896.43
801.264
372.872
453.017
1408.82
2636.85
2944.49
3304.55
2729.6
205.846
25.7516
23.0773
0.415328
31.2554
69.8256
0.141029
0.325933
79.0791
0.323708
553.936
175.751
318.111
20.0003
53.4725
14.5575
116.177
336.967
1367.18
501.903
2243.71
688.094
2796.5
7.36562
176.256
6.59878
94.5385
77.3689
119.177
14.2381
35.5792
45.019
21.6087
46.855
359.393
315.25
779.086
731.565
298.927
831.776
733.786
916.673
702.175
546.127
175.093
799.619
279.432
3175.64
8.07282
97.1252
396.372
57.9571
17.2053
173.85
542.349
83.2959
14.9213
25.5858
37.6113
29.2958
18.8919
25.9667
13.9375
27.1668
1.20579
22.8362
22.5642
29.2424
4.04856
55.1699
353.524
28.8229
24.764
17.3896
34.4863
26.6724
6.57853
14.8943
46.0503
29.0466
3.84607
26.7117
9.78758
33.1961
17.9337
55.3478
18.2538
72.4484
28.8791
51.0608
30.0284
414.185
178.356
201.334
80.3085
0.182361
0.157446
0.700483
0.124851
0.220492
0.255227
0.751644
644.15
72.5857
12.7056
55.918
13.6538
35.0823
10.8916
46.0661
13.7999
841.142
125.518
644.43
129.717
606.286
161.691
839.386
144.202
23.4791
67.0919
0.0919471
13.6599
0.0678635
21.1941
0.224245
14.8343
0.144885
15.6757
0.103656
18.6338
0.117171
11.0261
97.9743
57.4709
120.825
91.1424
95.0092
110.62
41.2775
59.7811
62.5194
38.1248
91.6474
51.6955
45.0115
24.9524
706.309
305.108
484.332
23.8705
2.92234
262.865
665.831
1072.27
271.19
988.343
489.934
345.619
0.765106
109.992
0.75837
81.365
278.841
150.649
144.789
191.468
137.046
398.275
110.458
240.405
57.7177
48.7056
55.259
65.9678
274.768
538.691
72.4037
90.8394
60.2397
77.9164
1.56575
14.863
0.901501
27.9231
3.20267
21.472
60.3411
138.636
238.684
533.149
46.45
62.0642
180.751
178.099
30.7847
198.637
173.068
102.831
204.507
378.355
338.941
481.624
447.9
845.716
649.26
461.764
101.332
2.08002
31.7453
95.2759
51.5156
38.2836
36.2732
0.88131
0.633017
903.825
79.6523
203.462
390.085
908.545
1.58341
27.1033
4.96744
153.435
1.40475
12.5726
3.25882
24.6102
9.25535
82.534
3.55993
23.7309
11.4859
51.5491
586.407
211.849
10.8958
77.3979
96.1349
1038.14
64.3436
4.43848
195.862
138.24
774.174
2.08285
82.6759
31.7553
18.8571
69.6484
820.778
844.584
866.157
673.324
24.7651
67.9673
1915.43
488.997
18.3721
77.5545
106.139
11.1134
32.5098
101.573
219.627
13.3807
250.69
2247.16
2054.94
0.698526
2.43729
447.443
2745.93
2655.94
3058.69
1713.71
6.66908
38.8823
1.04951
3.53574
382.728
26.5386
4.87288
1895.96
1382.67
1.90827
218.808
10.9356
56.3119
10.7695
57.9901
6.20269
32.9189
18.8105
102.428
223.716
345.548
585.38
1.85851
77.0073
10.9634
1916.01
1284.65
66.8166
8.86196
35.9646
202.514
716.156
1197.01
124.828
6.71228
3659.32
814.38
149.63
7.26163
1.81856
565.943
1.32886
236.341
42.3006
364.878
4.65164
281.976
180.646
6.78268
15.9111
53.3965
89.3606
10.7344
19.9439
56.527
11.9637
48.3442
3.57526
17.8432
1.54898
257.478
12.4087
79.5616
153.179
130.444
11.3339
41.5095
14.942
60.1711
9.06079
53.6381
77.463
50.0328
7.6739
33.0376
5.97782
51.2331
10.0224
29.4451
117.626
45.7988
42.0908
28.6554
167.812
489.416
851.712
82.0427
0.325879
958.118
331.984
12.4378
223.25
541.793
0.188225
524.05
5.00421
0.800421
242.716
36.9592
191.951
24.3254
0.892493
152.05
2.71668
300.159
80.2973
433.073
3.35176
565.519
301.938
4.18798
684.661
258.708
0.646019
56.8983
2690.77
807.291
1.42329
289.225
36.7882
180.621
0.184873
14.6004
99.7841
239.199
852.211
454.044
3.08912
106.842
44.5086
372.905
114.297
297.182
5.15185
121.521
672.573
3.03683
289.62
60.407
401.315
1.28443
331.638
39.6539
101.248
1196.84
484.982
0.484354
2677.31
1837.59
1705.16
650.295
1153.59
212.288
58.2647
2.12646
864.568
503.235
677.171
961.163
968.672
105.412
222.714
33.9989
458.745
93.481
2.69064
984.629
760.715
132.904
752.64
47.3522
3.71186
28.5223
40.4264
357.889
1122.19
289.397
873.685
878.049
1385.67
20.2352
1003.95
2.20374
353.927
46.2813
209.38
26.604
97.1341
75.6324
0.108132
67.9814
22.7612
34.8141
114.584
89.0096
0.11623
39.4872
15.2698
20.4716
56.7424
146.686
309.528
21.8234
94.067
13.5279
697.813
130.823
137.103
40.7278
74.3301
1.27451
312.415
130.311
26.7357
91.5096
499.696
13.3061
248.335
17.5975
0.513502
18.8726
121.646
58.5417
0.675532
39.1379
1.0923
35.3284
89.4818
88.8833
0.701797
22.2386
161.794
10.0434
127.439
73.9603
73.5338
164.053
96.157
0.716666
106.338
0.76496
112.501
0.951929
111.844
0.83949
59.5203
74.1967
138.139
39.7237
113.609
0.919356
104.078
6.90841
261.19
3.53079
317.398
77.7616
125.181
4.36681
340.589
30.8677
101.437
18.2919
402.952
459.519
19.8416
27.0226
30.6584
20.9693
35.203
94.7349
36.7452
169.709
59.7582
151.007
40.861
119.109
60.8583
43.5193
72.196
112.612
18.3637
34.0622
0.555101
18.0141
18.6201
21.0334
19.1632
14.9897
444.238
31.1624
453.126
34.5522
216.879
40.6636
259.269
40.156
449.894
508.421
497.046
478.618
300.537
239.146
189.773
252.8
22.0591
28.4433
20.8257
22.43
11.5332
21.053
15.0118
7.12082
317.146
267.213
267.75
249.647
498.809
669.997
592.661
806.695
646.547
349.025
884.08
302.768
2021.16
340.054
1117.28
363.486
17.3176
13.0402
32.3405
22.9704
136.095
101.487
41.3244
57.7201
86.8069
0.0594007
18.3477
0.0942992
15.0682
0.0907725
12.0657
0.0635768
15.4047
0.446624
34.6638
0.481601
38.5502
0.164664
20.307
0.195497
18.7638
58.9593
25.3955
46.7417
43.0843
51.5182
24.1749
49.1777
18.7339
0.38179
0.410651
0.56287
0.334588
1.24187
23.5568
0.984155
2.02689
2.12932
68.8567
13.215
103.063
19.2548
77.801
23.3278
61.4901
13.5018
23.6118
27.4299
19.6795
26.7134
24.2761
38.6789
30.3067
34.114
15.0386
21.6289
18.8621
44.5522
34.6399
243.714
239.709
158.344
198.175
253.337
296.423
283.382
285.872
97.2277
96.372
73.015
119.014
71.9327
154.769
82.7147
120.079
1014.29
415.904
636.792
350.036
490.838
504.237
27.3118
427.817
67.5093
319.039
55.3786
308.249
31.388
399.903
1365.82
443.532
864.787
271.753
809.741
294.009
3.73764
929.932
378.144
0.561325
1.04985
0.63829
0.777545
11.7375
38.2533
19.3781
31.0561
36.1972
32.7864
21.8289
58.7171
127.508
268.662
242.866
102.84
434.133
449.068
618.631
479.013
60.6453
62.7985
163.35
154.655
140.562
187.325
134.66
360.61
127.395
206.499
96.3234
115.055
91.4394
86.3432
231.044
312.484
15.3684
15.2232
7.8552
13.6874
168.453
284.735
195.283
111.689
23.6471
19.974
13.7844
13.2203
77.3329
40.0202
71.4166
118.765
140.727
81.0565
55.6197
122.906
3.80558
5.19755
6.27137
3.69164
6.35378
4.21227
8.8183
17.3546
973.645
929.753
854.81
1096.48
333.696
272.689
424.618
580.241
10.5121
14.2835
19.5934
11.67
738.996
444.25
409.234
641.792
441.742
293.508
783.485
231.656
594.438
911.827
1149.92
590.973
1999.17
348.425
1034.6
377.4
789.298
447.694
269.667
2018.15
1428.01
723.759
1369.89
287.955
142.422
15.2117
16.8912
28.1648
21.3201
58.3845
43.4636
42.2561
31.7081
101.257
44.1613
44.1192
61.6439
27.0825
35.6563
32.2882
27.5094
114.419
89.9374
48.2264
54.4961
93.0878
134.596
122.053
58.4432
43.4714
54.3142
45.6422
40.5636
63.2587
116.192
89.4417
56.6494
39.5239
92.8134
58.0971
39.5507
0.0571171
0.0485371
0.0259576
0.0362612
0.0647025
0.0551798
0.0545103
0.0604699
0.0562885
0.0494608
0.0863585
0.0207579
0.0320255
0.0296618
0.0165988
0.00857356
0.0036165
0.00419735
0.0124969
0.000503392
0.00105537
0.00168334
0.00137275
0.00321086
0.00414131
0.0131327
0.00928384
0.00196803
0.00137521
0.00112399
0.00212632
0.0118538
0.00755281
0.00985575
0.0162138
0.00296606
0.00267272
0.00202134
0.00238572
0.00757894
0.00575309
0.00371871
0.00510074
0.00164569
0.0016746
0.001622
0.00140109
0.00408185
0.00616391
0.00786607
0.00351073
4.46542
1.82618
1.65788
6.13187
0.897493
0.658533
0.686427
1.2039
65.6715
43.7562
27.7976
36.2922
22.0282
15.311
10.6288
15.4256
45.4954
48.2695
69.2246
37.9741
34.2292
20.6829
34.0116
31.1676
19.6292
31.882
26.8996
22.1975
11.6383
18.0933
30.7003
10.5096
0.0499694
0.0211276
0.0130745
0.0352184
0.00754913
0.0243988
0.029496
0.0115725
21.8122
30.8466
31.2354
18.1017
6.10346
1.48549
1.26384
5.56887
0.124376
0.218826
0.187048
0.137714
31.6345
24.2567
4.21816
2.44558
6.82037
8.71053
0.0420468
0.0281766
0.0511069
0.0619464
18.7634
30.299
18.4363
14.6825
19.7189
17.48
21.7633
20.5449
30.3248
20.594
16.3268
0.255861
0.304662
0.0770253
0.0864862
0.0312423
0.098301
0.068872
0.0223396
34.69
33.2234
17.3033
16.6561
70.7527
47.6398
59.4184
62.7483
56.7458
33.8323
93.8363
118.373
18.0473
27.9297
36.6055
20.9534
17.8044
18.5071
7.03314
10.6053
0.0359769
0.061162
0.0960469
0.0455959
0.0768455
0.0470682
0.0304817
0.0318475
6.95684
12.2699
14.876
8.58231
0.125333
0.101534
0.0995403
0.255001
6.2444
7.96445
7.04235
4.6753
0.209953
0.112261
0.150522
0.37638
0.863628
179.531
0.4339
19.1597
0.100132
0.127913
11.0917
0.125615
3.35022
0.0285265
2.51775
0.0228623
0.286739
1.31385
0.361881
1.80339
0.24399
0.0662369
7.60627
0.00102274
25.1709
0.00163371
11.7983
0.00104634
71.4443
0.00799116
43.9965
0.00458681
11.4286
0.000741535
57.8584
0.00305133
135.309
0.00375616
0.232413
1.22542
2.50181
0.168668
5.29484
0.0744128
0.431158
138.028
153.843
1.45061
3.43138
0.705811
1.97072
0.572604
1.98318
7.1404
0.210335
10.7168
0.206901
5.76176
0.20002
2.71225
0.0950125
2.62136
0.322165
13.0829
0.0831871
6.14913
0.0822902
5.89302
1.59249
0.118652
2.17469
0.219786
0.00150356
1.48906
3.54708
0.00717508
3.88024
1.1873
0.0182626
0.0193247
3.79724
0.356557
5.83646
0.0147467
3.01271
0.0116702
0.33861
0.607192
0.06336
11.0339
0.820561
0.616951
0.0870813
4.93841
0.000579581
2.79314
0.000523713
62.2096
0.00226112
3.81485
0.000840301
26.2434
38.2293
1.76014
22.0421
0.00205379
32.3041
0.00300986
4.36514
0.0204873
0.0439543
4.25207
0.0346816
9.29802
7.46234
13.7327
22.5261
44.2455
8.23337
8.57569
46.0771
5.27466
0.0911985
0.751638
62.8917
15.8853
42.6153
3.31147
0.0581023
0.441931
41.255
5.61669
1.85952
0.0841588
2.48036
0.0516283
1.74241
0.000610514
2.27792
0.00114386
1.72777
0.000810489
0.0533818
14.0908
4.98388
0.00771508
0.0390809
12.3465
6.70067
0.0212728
0.113536
19.9657
0.0961585
26.9613
68.344
8.44319
40.9366
10.5079
43.3209
1.68491
41.135
6.1386
38.6912
3.34526
44.9852
1.72509
47.8861
6.70849
44.1963
0.712032
8.53177
33.615