# vtk DataFile Version 2.0
Unstructured Grid by M++
ASCII
DATASET UNSTRUCTURED_GRID
POINTS 4225 float
  0.921875   0.593750 0
  0.921875   0.609375 0
  0.656250   0.609375 0
  0.671875   0.609375 0
  0.656250   0.546875 0
  0.671875   0.546875 0
  0.656250   0.562500 0
  0.656250   0.578125 0
  0.656250   0.593750 0
  0.671875   0.593750 0
  0.671875   0.562500 0
  0.671875   0.578125 0
  0.671875   0.625000 0
  0.671875   0.640625 0
  0.906250   0.578125 0
  0.890625   0.578125 0
  0.546875   0.515625 0
  1.000000   0.890625 0
  0.515625   0.640625 0
  0.515625   0.625000 0
  1.000000   0.875000 0
  0.515625   0.656250 0
  0.515625   0.687500 0
  0.515625   0.671875 0
  1.000000   0.921875 0
  0.546875   0.531250 0
  0.546875   0.546875 0
  0.546875   0.562500 0
  0.796875   0.531250 0
  0.953125   0.890625 0
  0.953125   0.875000 0
  0.953125   0.843750 0
  0.953125   0.828125 0
  0.953125   0.812500 0
  0.531250   0.562500 0
  0.531250   0.546875 0
  0.515625   0.562500 0
  0.515625   0.546875 0
  1.000000   0.812500 0
  0.781250   0.546875 0
  0.765625   0.546875 0
  0.859375   0.921875 0
  0.921875   0.671875 0
  0.609375   0.906250 0
  0.671875   0.656250 0
  0.609375   0.921875 0
  0.671875   0.671875 0
  0.671875   0.984375 0
  0.671875   1.000000 0
  0.906250   0.984375 0
  0.906250   1.000000 0
  0.921875   0.984375 0
  0.921875   1.000000 0
  0.859375   0.609375 0
  1.000000   0.781250 0
  0.515625   0.531250 0
  0.531250   0.531250 0
  0.531250   0.515625 0
  0.515625   0.515625 0
  1.000000   0.750000 0
  0.765625   0.531250 0
  0.781250   0.531250 0
  0.781250   0.515625 0
  0.765625   0.515625 0
  0.859375   0.875000 0
  0.921875   0.625000 0
  0.859375   0.890625 0
  0.921875   0.640625 0
  0.671875   0.968750 0
  0.671875   0.953125 0
  0.921875   0.968750 0
  0.921875   0.953125 0
  0.859375   0.593750 0
  0.859375   0.578125 0
  0.875000   0.578125 0
  0.828125   0.890625 0
  0.890625   0.640625 0
  0.593750   0.890625 0
  0.656250   0.640625 0
  0.593750   0.875000 0
  0.656250   0.625000 0
  0.578125   0.890625 0
  0.640625   0.640625 0
  0.578125   0.875000 0
  0.640625   0.625000 0
  0.968750   0.890625 0
  0.984375   0.890625 0
  0.968750   0.812500 0
  0.968750   0.828125 0
  0.984375   0.812500 0
  0.984375   0.828125 0
  1.000000   0.828125 0
  0.656250   0.953125 0
  0.640625   0.953125 0
  0.890625   0.968750 0
  0.906250   0.968750 0
  0.906250   0.953125 0
  0.890625   0.953125 0
  0.531250   0.703125 0
  0.531250   0.718750 0
  0.546875   0.718750 0
  0.546875   0.703125 0
  0.593750   0.578125 0
  0.562500   0.578125 0
  0.578125   0.578125 0
  0.843750   0.578125 0
  0.828125   0.578125 0
  0.828125   0.812500 0
  0.890625   0.562500 0
  0.828125   0.796875 0
  0.953125   0.906250 0
  0.953125   0.921875 0
  0.531250   0.859375 0
  0.593750   0.609375 0
  0.531250   0.843750 0
  0.593750   0.593750 0
  0.515625   0.843750 0
  0.578125   0.593750 0
  0.515625   0.859375 0
  0.578125   0.609375 0
  0.937500   0.859375 0
  1.000000   0.609375 0
  0.921875   0.859375 0
  0.984375   0.609375 0
  0.937500   0.796875 0
  0.921875   0.796875 0
  0.984375   0.546875 0
  0.562500   0.812500 0
  0.843750   0.796875 0
  0.843750   0.812500 0
  0.859375   0.796875 0
  0.859375   0.812500 0
  1.000000   0.906250 0
  0.984375   0.906250 0
  0.968750   0.906250 0
  0.968750   0.921875 0
  0.984375   0.921875 0
  0.593750   0.921875 0
  0.656250   0.671875 0
  0.593750   0.906250 0
  0.656250   0.656250 0
  0.578125   0.906250 0
  0.640625   0.656250 0
  0.578125   0.921875 0
  0.640625   0.671875 0
  1.000000   0.843750 0
  0.984375   0.843750 0
  0.968750   0.843750 0
  0.968750   0.859375 0
  0.968750   0.875000 0
  1.000000   0.859375 0
  0.984375   0.859375 0
  0.984375   0.875000 0
  0.656250   1.000000 0
  0.656250   0.984375 0
  0.656250   0.968750 0
  0.640625   0.968750 0
  0.640625   1.000000 0
  0.640625   0.984375 0
  0.843750   0.921875 0
  0.906250   0.671875 0
  0.843750   0.906250 0
  0.906250   0.656250 0
  0.828125   0.906250 0
  0.890625   0.656250 0
  0.828125   0.921875 0
  0.890625   0.671875 0
  0.781250   0.859375 0
  0.843750   0.609375 0
  0.781250   0.843750 0
  0.843750   0.593750 0
  0.765625   0.843750 0
  0.828125   0.593750 0
  0.765625   0.859375 0
  0.828125   0.609375 0
  0.968750   0.609375 0
  0.906250   0.859375 0
  0.953125   0.609375 0
  0.890625   0.859375 0
  0.937500   0.609375 0
  0.875000   0.859375 0
  0.562500   0.593750 0
  0.546875   0.593750 0
  0.531250   0.593750 0
  0.531250   0.609375 0
  0.562500   0.609375 0
  0.546875   0.609375 0
  0.609375   0.625000 0
  0.546875   0.875000 0
  0.609375   0.640625 0
  0.546875   0.890625 0
  0.625000   0.640625 0
  0.562500   0.890625 0
  0.625000   0.625000 0
  0.562500   0.875000 0
  0.921875   0.843750 0
  0.984375   0.593750 0
  0.937500   0.843750 0
  1.000000   0.593750 0
  0.921875   0.812500 0
  0.921875   0.828125 0
  0.984375   0.578125 0
  0.937500   0.828125 0
  1.000000   0.578125 0
  0.937500   0.812500 0
  1.000000   0.562500 0
  0.578125   0.828125 0
  0.921875   0.781250 0
  0.937500   0.781250 0
  1.000000   0.531250 0
  0.921875   0.765625 0
  0.984375   0.515625 0
  0.937500   0.765625 0
  0.625000   0.656250 0
  0.562500   0.906250 0
  0.609375   0.656250 0
  0.546875   0.906250 0
  0.625000   0.671875 0
  0.562500   0.921875 0
  0.609375   0.671875 0
  0.546875   0.921875 0
  0.859375   0.781250 0
  0.859375   0.765625 0
  0.828125   0.671875 0
  0.765625   0.921875 0
  0.828125   0.734375 0
  0.765625   0.984375 0
  0.875000   0.843750 0
  0.937500   0.593750 0
  0.890625   0.843750 0
  0.953125   0.593750 0
  0.906250   0.843750 0
  0.968750   0.593750 0
  0.906250   0.828125 0
  0.968750   0.578125 0
  0.937500   0.578125 0
  0.953125   0.578125 0
  0.906250   0.765625 0
  0.875000   0.765625 0
  0.953125   0.515625 0
  0.531250   0.781250 0
  0.671875   0.890625 0
  0.531250   0.921875 0
  0.953125   0.656250 0
  0.828125   0.781250 0
  0.843750   0.781250 0
  0.703125   0.984375 0
  0.687500   0.984375 0
  0.843750   0.875000 0
  0.906250   0.625000 0
  0.671875   0.781250 0
  0.734375   0.531250 0
  0.906250   0.609375 0
  0.671875   0.765625 0
  0.734375   0.515625 0
  0.906250   0.593750 0
  0.890625   0.593750 0
  0.875000   0.593750 0
  0.828125   0.875000 0
  0.890625   0.625000 0
  0.656250   0.781250 0
  0.718750   0.531250 0
  0.890625   0.609375 0
  0.656250   0.765625 0
  0.718750   0.515625 0
  0.875000   0.609375 0
  0.640625   0.765625 0
  0.703125   0.515625 0
  0.812500   0.921875 0
  0.875000   0.671875 0
  0.812500   0.875000 0
  0.875000   0.625000 0
  0.640625   0.781250 0
  0.703125   0.531250 0
  0.812500   0.515625 0
  0.750000   0.828125 0
  0.812500   0.578125 0
  0.687500   1.000000 0
  0.937500   0.656250 0
  0.875000   0.906250 0
  0.531250   0.656250 0
  0.890625   0.906250 0
  0.906250   0.906250 0
  0.562500   0.656250 0
  0.906250   0.890625 0
  0.562500   0.640625 0
  0.968750   0.625000 0
  0.906250   0.875000 0
  0.562500   0.625000 0
  0.937500   0.640625 0
  0.875000   0.890625 0
  0.890625   0.890625 0
  0.546875   0.640625 0
  0.953125   0.625000 0
  0.890625   0.875000 0
  0.546875   0.625000 0
  0.546875   0.687500 0
  0.890625   0.937500 0
  0.937500   0.625000 0
  0.875000   0.875000 0
  0.531250   0.625000 0
  0.531250   0.640625 0
  0.546875   0.656250 0
  0.937500   0.968750 0
  0.687500   0.968750 0
  0.953125   0.968750 0
  0.703125   0.968750 0
  0.968750   0.968750 0
  0.718750   0.968750 0
  0.718750   0.906250 0
  0.968750   0.953125 0
  0.718750   0.953125 0
  0.968750   0.937500 0
  0.859375   0.906250 0
  0.921875   0.656250 0
  0.718750   0.937500 0
  0.828125   0.531250 0
  0.937500   0.953125 0
  0.687500   0.953125 0
  0.953125   0.953125 0
  0.703125   0.953125 0
  0.703125   0.890625 0
  0.843750   0.515625 0
  0.953125   0.937500 0
  0.953125   1.000000 0
  0.703125   0.937500 0
  0.937500   0.937500 0
  0.687500   0.937500 0
  0.703125   0.906250 0
  0.718750   0.890625 0
  0.687500   0.890625 0
  0.687500   0.765625 0
  0.750000   0.515625 0
  0.687500   0.781250 0
  0.750000   0.531250 0
  0.859375   0.937500 0
  0.921875   0.687500 0
  0.687500   0.796875 0
  0.750000   0.546875 0
  0.578125   0.750000 0
  0.515625   1.000000 0
  0.843750   0.765625 0
  0.578125   0.734375 0
  0.515625   0.984375 0
  0.562500   0.734375 0
  0.828125   0.750000 0
  0.765625   1.000000 0
  0.562500   0.750000 0
  0.562500   0.718750 0
  0.578125   0.515625 0
  0.921875   0.703125 0
  0.921875   0.718750 0
  0.593750   0.515625 0
  0.687500   0.875000 0
  0.750000   0.625000 0
  0.578125   0.531250 0
  0.921875   0.750000 0
  0.703125   0.875000 0
  0.765625   0.625000 0
  0.593750   0.531250 0
  0.875000   0.968750 0
  0.937500   0.718750 0
  0.703125   0.828125 0
  0.765625   0.578125 0
  0.937500   0.734375 0
  0.703125   0.812500 0
  0.765625   0.562500 0
  0.890625   0.687500 0
  0.828125   0.937500 0
  0.656250   0.796875 0
  0.718750   0.546875 0
  0.890625   0.718750 0
  0.828125   0.968750 0
  0.906250   0.796875 0
  0.718750   0.828125 0
  0.781250   0.578125 0
  0.890625   0.703125 0
  0.828125   0.953125 0
  0.656250   0.859375 0
  0.906250   0.781250 0
  0.968750   0.531250 0
  0.546875   0.796875 0
  0.671875   0.796875 0
  0.734375   0.546875 0
  0.843750   0.953125 0
  0.906250   0.703125 0
  0.671875   0.875000 0
  0.718750   0.812500 0
  0.781250   0.562500 0
  0.875000   0.812500 0
  0.531250   0.890625 0
  0.593750   0.640625 0
  0.937500   0.890625 0
  0.875000   0.781250 0
  0.609375   0.703125 0
  0.546875   0.953125 0
  0.890625   0.796875 0
  0.625000   0.718750 0
  0.562500   0.968750 0
  0.906250   0.812500 0
  0.734375   0.859375 0
  0.796875   0.609375 0
  0.718750   0.875000 0
  0.781250   0.625000 0
  0.750000   0.859375 0
  0.812500   0.609375 0
  0.812500   0.546875 0
  0.750000   0.812500 0
  0.734375   0.843750 0
  0.796875   0.593750 0
  0.750000   0.843750 0
  0.812500   0.593750 0
[...]
CELL_DATA 4096
SCALARS scalar_value float 1
LOOKUP_TABLE default
21.8368
44.9593
62.3331
34.5447
10.953
21.7818
8.97014
4.33422
79.5146
39.3693
29.9055
42.394
91.8429
51.8983
132.988
198
2.51473
0.723415
1.69763
4.6944
0.323143
0.412052
1.19216
0.512178
0.0332335
0.120976
0.177858
0.0411769
0.909747
1.55097
0.894031
0.93547
0.523826
0.175469
0.0753141
0.298733
0.430901
0.872801
0.494689
0.26892
1.47659
1.86222
5.16097
5.53807
1.6585
1.30134
2.58439
3.95402
14.0139
21.2884
19.0165
14.4035
1.34185
3.26315
3.64252
1.37554
0.190976
0.218521
0.450604
0.651558
65.1074
259.364
173.922
94.0787
37.0145
24.0862
9.25505
13.3227
6.62505
4.88659
2.61909
3.36836
7137.69
3636.27
1867.01
2383.51
33.8442
99.1143
22.9392
12.3345
1.95398
0.794263
0.319282
0.766364
0.116387
0.14343
0.0466768
0.0429738
6312.4
5605.87
11141
5116.65
160.213
181.725
59.9867
71.2803
0.0672665
0.110411
0.0893337
0.0598729
0.204218
0.579042
0.269329
0.0991025
656.773
1785.11
1912.89
938.595
263.971
238.385
339.315
296.19
0.170577
0.272574
0.198771
0.0901953
0.0583657
0.051396
0.064303
0.0376783
832.741
1353.09
420.016
362.83
2.25916
1.98412
1.12537
1.00782
8.04219
2.47983
4.0828
10.9497
2.32168
0.473401
0.728072
2.92775
3.71074
5.61715
14.1875
4.87261
28037.9
27940.5
18769.8
16017.8
3.86207
2.08371
3.69566
6.41812
11493.4
15133.6
6415.27
5530.69
17004.5
20354
21823.7
15929
0.0276059
0.0370111
0.0445628
0.0195102
113.245
97.4295
60.8301
64.1911
0.0156708
0.0205142
0.0129596
0.0125629
42.3893
85.839
48.1847
20.1586
11443.9
20501.9
31470.3
15913.2
4759
6972.5
6186.68
2801.62
0.051112
0.0266072
0.023317
0.0392287
3.94426
7.85778
18.9846
11.6867
3128.21
8965.21
6896.2
2147.51
20880.2
12673.8
7306.51
11212.1
0.0235586
0.0175056
0.0190446
0.0197003
24.1072
11867.2
1.42
1.95076
11.2512
10.9574
1.39619
3.79588
86.6937
2.99608
200.775
4.2675
67.5669
8.39078
8.46665
2.39631
85.8909
1.66716
39.6782
2.01044
24.6137
2.08289
50.1335
49.2037
8.7537
11.0942
339.432
693.154
29.4938
184.226
535.748
329.078
110.78
194.854
65.0359
46.1779
42.2005
217.662
0.8555
2371.48
0.840835
6657.25
18.2048
1412.16
37.7284
1839.36
6.44781
11.7484
10.1512
28.5864
16.516
0.0448087
9.50056
13.4482
0.0513626
15.619
0.247453
35.1634
18.5954
0.231539
15.2395
211.336
17.3058
473.416
24.8754
802.351
4.9331
14.561
9.18526
205.27
519.928
34.0741
399.606
574.49
51.9505
514.556
139.63
833.84
47.4424
70.6049
6.13633
249.134
13.4708
375.816
255.17
200.395
9.82577
60.4046
6.20907
0.294582
10.6231
28.1556
1.54664
2321.18
2.22383
8097.15
2.8966
2685.63
114.56
144.616
1974.81
86.171
3144.27
1.12649
7598.54
90.5916
8393.1
93.4954
0.171298
262.996
4712.84
230.748
54.0906
9.54007
163.615
11.9325
2665.58
1.27431
88.6065
1.97971
168.726
1.60246
285.908
4.56406
31.3998
224.929
7.91025
7.71057
14.0603
93.1462
1.0393
17.072
713.933
33.2318
4835.09
0.103198
213.21
1.48557
0.0944886
0.0870293
16.2394
428.274
66.9415
5.63922
0.0915843
6.32561
343.766
3.32579
125.519
219.537
1.33792
221.267
0.910782
23.6088
6.95993
29.2262
6.64449
11.6619
11.9402
20.9016
0.314242
12.9049
0.0630527
30.101
3.55875
9.80993
0.045496
0.276823
1.40629
2.5392
0.355448
3625.77
6.89016
2375.19
10.4924
1474.31
16.087
2520.77
14.2846
6.29168
69.1794
22.8903
7.8562
29.9803
3050.77
19.8511
5291.05
33.8054
636.395
19.6729
10.7966
147.522
16.5196
1917.83
920.955
124.779
13.4124
3.96084
36.5487
2853.61
596.86
36.7088
11.5885
4.78349
34.5327
3.4697
711.617
54.8742
28.1901
3.1718
12025
26.3287
5863.78
12.6828
12187.5
8.30961
8331.56
13.7891
8790.87
4.3226
3872.98
6.0285
5538.88
3.96718
1.42123
17516.6
24.2838
21.7711
0.693819
1437.82
18.1589
0.617374
2052.97
7.03392
28.1614
0.735714
3627.04
41.9585
44.7267
24.7284
0.395751
8.6412
18.1696
1.10203
39.6954
22.3702
1.83632
16.9745
12.7088
26.916
34.2693
23.5177
13.4982
12.0956
4.19656
8.51126
6.47071
5.87669
10.1109
6.48367
7.81154
11.6618
13.1004
1331.67
22.8257
17.3203
0.0167957
49.3233
25.7655
0.0170699
54.4788
8.53782
124.465
28.2769
16.9417
18.2545
7579.29
3.13509
3.51742
7.87456
10.4513
5.74469
524.346
161.614
29.6666
13.1371
8.31672
4.93299
2.01039
1338.02
22.9649
0.715867
6764.6
90.4563
0.0256155
975.792
63.2288
17.9529
81.3953
0.0299668
40.7958
0.0481273
22.0006
1013.83
17.7136
8.26674
595.274
22.7942
31.966
134.671
0.0410555
313.646
57.1974
0.272187
68.8075
0.103399
87.0082
0.0537432
153.564
3.80377
1.39628
3236.72
3.0458
627.773
41.4561
10.2141
10.3893
1027.15
15.1633
1.16843
183.21
1.03455
2598.17
5.66327
5.64237
2.53482
172.523
0.0608576
1079.89
95.5873
32.9178
1723.61
3.95852
128.562
0.208997
2560.89
31.9407
7.10685
3.72271
1.31858
4382.06
36.3856
167.963
0.0379962
532.513
234.951
261.669
13.4231
1.36329
1368.81
188.246
101.342
42.5424
21.0594
11.6047
400.838
8.25777
1375.31
3.81494
83.1512
0.165019
207.281
265.715
133.385
2390.33
11.8421
145.055
0.246019
4.71307
14.0758
60.3684
4.81216
1814.39
39.7597
1.09468
78.0158
588.961
206.015
13.8407
0.0211464
19.856
0.0196589
403.52
81.918
661.543
49.5585
116.89
29.5722
8.83991
588.031
66.6284
163.234
13.3128
667.741
111.971
52.6148
309.821
244.864
2.84027
27.0911
5037.6
1.05554
126.825
29.5542
301.652
2319.42
10116.9
8.03714
2.84785
302.509
149.194
96.3236
5.15905
57.5616
250.551
0.58617
18.3834
38.5095
22.0777
32.2626
161.676
0.0796061
790.765
190.732
11.7755
67.5322
110.698
33.413
2.17223
13200.2
175.368
0.106282
0.0723333
5.45216
263.012
0.396034
0.0731537
3.0818
10916.5
0.0630361
23.2553
372.474
14.9258
248.877
11.499
362.631
14.1722
570.081
2.4375
473.491
26.882
0.193575
5.75685
510.457
7.31749
320.863
4.21472
2.84444
8504.66
20.8545
4.17231
201.917
6.01729
4.24423
107.389
4.82689
118.748
6.16444
194.901
6.38859
245.917
8.08388
1234.07
45.8593
32.4267
403.803
675.873
4.93719
12.9604
617.377
7.42451
289.507
7.13254
13.0615
6.91759
2592.54
8.98094
17.0774
308.501
0.614435
6.79516
149.816
60.5869
1.16386
1.24906
4.57685
5.58573
4.67293
12.4822
0.804212
3.36211
2.07654
368.85
4.77305
0.907017
607.716
8.90826
0.530185
693.829
11.0184
8.42531
963.802
1.46657
37.2932
8.9785
363.075
2.21897
39.2132
438.485
30.5087
67.3566
14.3316
666.329
7.47171
0.469176
11.5579
0.311919
3.79517
24.8937
1.7727
348.924
30.1757
274.277
9.39993
686.432
22.1852
55.722
9.87982
598.203
6.34
190.952
40.3695
166.944
1.02509
378.359
2.44358
261.174
3.20474
116.443
1.34396
300.938
9.71986
0.0200617
10.0814
0.0199397
11.2628
0.0269002
7.58516
0.01837
87.8517
34.2947
0.409304
37.6709
1.07844
14.8654
29.7081
2.31075
35.8461
1.39502
5.10687
1.987
1.32795
2.15567
0.0244562
0.0169434
0.0246351
0.0507303
0.171483
0.145953
0.120165
0.201181
0.751465
813.518
0.951128
2725.83
1.27147
2606.44
1.17767
877.774
1.25356
41.8371
7.30375
16.1094
14.3951
7.10559
3.97361
16.6971
44.0372
68.3174
177.209
150.941
33.7342
17.9239
23.6806
31.2966
1175.46
405.166
809.433
328.928
1641.65
165.915
4361.43
119.824
2.64028
3.00287
4.23323
4.28606
2.16392
1.24871
1.93761
2.98219
8.96259
154.517
3.20074
145.929
4.55673
51.6189
13.5953
30.595
517.776
823.702
462.795
280.218
51.7654
43.0804
20.1821
20.6448
0.0559564
0.0584975
0.0250344
0.0459533
0.15153
0.0445206
0.0372536
0.0347536
0.0314097
343.565
123.213
190.35
273.906
260.63
1205.41
447.768
316.376
43.6721
4.00089
14.9871
4.44399
15.2755
4.4202
52.6984
4.62541
417.064
74.7289
307.421
41.1555
312.714
31.8865
724.557
101.466
0.119599
0.223101
0.236028
0.104014
8.51359
6918.73
4.0269
4720.76
1.54955
6787.81
3.77999
11892.5
585.304
71.0649
2206.87
60.3204
1403.12
103.726
303.813
104.451
1.36586
681.422
0.943252
560.523
1.12127
1882.4
2.59763
1881.51
402.246
302.046
358.603
677.369
45.6657
26.6872
20.5767
35.323
2.12625
2.93399
2.37383
1.94533
974.962
8.34439
1697.25
8.36871
1364.39
10.4305
433.032
6.19031
6774.61
50.9974
7207.29
90.7187
3360.98
82.8225
3849.02
56.5144
2.06863
2.32752
4.05538
2.85662
63.2223
123.897
154.207
63.435
10.4481
5.6316
15.6447
19.526
9.85581
12.1989
18.2438
11.5694
1.38784
8.81125
1.96844
8.0199
4.25089
4.20759
5.8289
4.44498
129.788
1.22869
5.13478
104.874
8.13372
234.265
22.8243
176.216
15.5927
0.203777
0.155249
0.214766
0.296144
1.41261
8729.58
2.0077
12928.1
1.58881
5814.73
0.946989
5022.79
7.88967
7.58473
8.00528
10.5157
9.69417
9.03808
7.54513
8.00065
0.0079083
0.0101067
0.012433
0.00905423
103.928
122.317
107.787
80.5727
105.417
11.2522
70.4953
20.2815
0.130485
0.192869
0.0668178
0.0364011
0.0332977
0.0427802
0.0250132
0.0152676
1.17853
0.374037
0.177588
0.492742
0.353725
0.479498
0.810016
0.497576
0.0133721
0.0184115
0.0258662
0.0142843
31.0591
8.33843
12.4896
10.5971
10.3162
7.34034
5.16853
11.4226
9.79323
12.7975
22.7691
1.27945
4.33458
6.64848
1.77829
3.79571
4.87822
1.31016
1.26283
0.00358989
0.00403172
0.00790944
0.00575755
0.0185356
0.0164204
0.0234949
0.0192196
3.75905
6.72441
6.86099
6.30487
11.757
4.83059
5.63125
10.8897
1.76265
1.21993
0.40716
0.569513
0.0539003
0.0496468
0.0793954
0.0712971
0.0593679
0.0617393
0.133449
0.0959545
3.6316
2.24753
2.47605
4.40686
0.0645026
0.102934
0.0841733
0.0741789
0.15297
0.135291
0.258069
0.219354
0.925703
1.56851
3.12873
2.64107
0.167125
0.190386
0.0713868
0.0720458
1.33313
0.618249
0.279833
0.408116
0.269771
0.871143
0.372251
0.140513
0.122447
0.303215
0.26207
0.0992692
0.0726944
0.0678112
0.0935649
0.0642559
0.0352852
0.0499307
0.0612329
0.0420004
0.0362821
0.0431377
0.0306048
0.0459444
0.0379
0.0274271
0.0252884
0.26686
0.42441
0.382007
0.157052
4.21091
5.66657
4.16337
4.22517
0.728059
0.597168
0.223804
0.217615
1.45201
0.931365
1.74153
2.58729
21.5344
11.8322
10.4089
18.467
0.342608
0.632775
1.49763
0.462896
7.0171
9.08615
6.88957
5.24893
0.908179
0.890206
0.552888
0.434067
3.73504
1.49158
1.27448
2.9608
76.661
88.1008
70.3779
61.5103
0.844347
1.42541
3.0918
2.13759
1.69934
1.11977
1.90291
2.5086
0.326867
0.185331
0.18819
0.275373
65.2777
59.5605
38.2669
47.4393
18.9334
11.7984
7.12732
16.6994
18.4868
37.1186
35.6275
17.3935
0.0141696
0.00598269
0.0120472
0.0180729
0.00342123
0.00401201
0.00663224
0.00844761
7.84611
13.5096
20.4887
14.9791
0.0328118
0.0429984
0.0212081
0.0170076
0.64562
0.67317
1.29296
0.790382
0.815333
0.343613
0.324226
0.705637
6.84793
5.68962
1.22308
1.38275
24.5432
18.1594
17.1335
23.9325
8.17068
7.30898
16.2381
18.1137
34.3282
28.0599
43.8888
41.9292
4.48794
5.22472
3.75868
3.61613
1.60829
99.0109
33.4164
0.0238641
0.93735
0.367967
0.0161089
0.0320162
0.333531
0.035556
0.0437345
0.241572
0.243952
0.048653
158.427
0.117423
52.2908
2.04673
0.0531099
2.01574
0.0792704
2.15872
0.0663677
1.14093
24.9476
2.39851
9.49035
0.163457
25.4473
0.114965
0.140906
299.813
0.066521
0.614927
0.296634
0.578612
0.0306443
1.111
0.73231
0.0289709
0.215091
2.00613
1.85251
1.50806
0.317577
0.0704068
13.8712
0.0325291
0.114649
0.200675
0.0531095
65.7185
0.0616329
0.36354
0.0578993
41.2585
0.0977233
5.51545
456.434
7.22897
342.884
2.97705
750.856
0.5703
0.52231
15.3537
265.529
0.714033
0.471531
0.782194
4.35002
28.6005
175.146
16.2638
165.171
0.975502
0.463543
13.4729
319.642
0.830627
0.549966
2.55956
0.513598
55.4931
8.75661
14.9531
6.55862
8.43048
8.97378
38.7064
15.5417
0.0187491
0.393829
0.0220509
0.516577
0.0232584
0.0139717
0.0749534
0.0127287
0.0151652
0.0221519
0.0668222
0.690046
13.746
3.54842
17.418
4.89997
85.2588
6.73589
51.975
3.91196
0.0292064
2.85777
0.0186202
1.40215
0.0219556
0.81303
0.0213724
0.972111
1.83536
0.533931
0.00796095
0.047502
0.00333377
0.0218571
0.00482977
0.225508
0.00353663
0.101231
0.00453397
0.0259889
0.00143967
0.0769629
8.21541
15.4006
6.77492
49.84
3.54024
10.3735
13.9528
54.9543
27.5859
13.3675
18.0191
31.5448
129.752
11.7234
1.08205
0.832976
0.798505
0.559291
0.733735
0.42997
0.726443
1.22487
0.264927
1.04405
0.245365
0.850121
0.0859575
0.0776601
0.0894429
0.0693702
0.0302462
0.936659
1.82958
8.94324
1.05831
15.677
2.84094
27.2863
7.32641
11.6298
3.74737
36.1991
0.852656
8.1253
1.00568
12.1136
1.37794
6.18787
0.406301
0.599238
0.509174
0.416951
0.699134
0.419921
3.81094
54.8325
0.928968
3.19777
3.59683
56.1399
1.29249
3.63084
0.126374
0.616409
1.57141
1.45572
19.0662
0.499776
2.11021
0.00950063
0.0193676
0.0565596
0.0517584
0.0583453
0.265059
0.393049
0.675856
11.4768
14.1351
52.9335
39.5355
0.161735
0.0870349
1.39115
1.41821
1.24615
0.663446
0.572978
0.51706
0.494715
0.831577
5.90892
0.345101
0.613292
1.09201
0.793049
2.4916
54.2507
1.28756
0.744452
1.88066
2.44205
0.145312
2.17287
2.44956
5.92882
0.509932
0.697007
3.73048
1.69394
0.342231
4.66437
0.86325
0.0926429
0.347475
1.48587
0.130463
2.37287
1.96072
0.0601216
4.42285
1.54351
0.188039
3.28251
0.031154
1.97776
3.80112
4.42224
0.403421
0.360532
2.55919
1.38707
0.661156
0.172167
1.02901
2.07248
0.0562019
0.063403
0.470786
1.79764
0.0896861
2.56815
2.66099
0.137146
1.3873
0.681774
0.201112
0.49488
5.64183
1.83297
0.610302
3.93578
0.0894614
0.398917
1.38259
1.63734
0.543278
1.81037
1.11336
1.31008
1.10962
2.45077
1.16368
0.367808
0.0361726
1.16781
0.0698648
0.59069
0.183495
0.270673
5.37057
0.856549
0.129741
0.876085
0.348495
0.021396
0.362471
1.0525
0.117802
0.121853
2.79594
0.938997
0.135454
0.0509849
0.207233
0.158008
0.376693
0.215768
0.680756
0.230173
2.46563
1.49699
0.143338
1.14938
0.651125
1.39563
0.0567917
2.61362
2.30362
0.899508
0.61561
0.785284
0.778728
0.0280649
0.0463387
0.866167
0.520403
0.486593
3.02865
0.901002
0.729177
3.43423
7.15154
1.02041
0.539799
4.10682
0.294939
0.878225
0.690459
1.38453
1.89077
0.859051
0.700478
7.58729
0.672563
568.244
739.027
0.374599
0.49021
1.77997
366.641
0.0149006
0.0311322
1.07134
2186.69
0.857877
0.483616
0.0155572
1.56211
0.541678
0.0661949
0.214175
0.190501
0.394621
1897.31
0.0315042
0.114863
0.219103
2.17413
0.287889
0.728115
0.627082
1.88456
1.9814
0.265876
0.154297
3.09393
0.0416125
0.0547696
0.157563
3.39457
0.0840373
0.709624
0.325219
0.195951
0.00220773
0.096663
0.515762
0.28848
0.0363916
3.82525
0.0931182
0.564679
2.19356
0.382946
0.26038
1.7791
0.254878
161.096
0.0252267
0.121004
1.09748
0.166574
0.388105
0.0415787
0.365176
0.770563
0.24515
0.696818
0.051877
0.0454783
0.165655
2.89424
1.71208
0.124958
1.94187
81.6134
0.838186
0.500731
1.50643
0.277485
1.14634
0.0345335
1.78046
196.29
0.806539
0.442433
0.863605
1.82343
0.729084
1.48226
1.76599
0.501136
0.537683
1.42076
1.1999
77.5858
41.9023
0.113304
0.0352423
3.14596
1.84643
0.817922
1.36876
0.02641
0.0426098
0.11242
1.53586
0.321267
0.194809
3.44903
0.218151
10.7815
0.00923973
0.439886
0.0245126
3.78339
0.662228
5.18507
0.0150574
0.394797
0.0405455
4.47794
0.272918
0.553978
0.350115
6.73466
0.436685
0.0314938
1.62068
1.22585
16.3816
0.0706733
2.26057
0.235465
0.0201852
0.355588
0.0672936
1.30326
1.3441
0.603793
0.973155
0.251595
0.0992525
0.132426
1.72697
4.231
0.341313
0.368919
0.249386
0.560994
0.532342
1.40819
0.103573
0.26854
18.9442
0.0931972
0.63234
2.42211
0.156859
1.42133
2.88321
0.217111
0.148467
0.206986
0.351421
0.375813
0.693467
0.304455
0.450986
1.25431
0.345322
0.939742
0.236525
0.183842
0.154983
0.143387
8.77452
0.158564
2.90172
0.800273
0.257373
0.133258
6.0227
5.00077
2.22949
0.468575
41.6971
0.841851
0.0965256
0.0738854
0.0281576
0.0372267
3.76651
0.380917
4.98987
0.709658
7.63688
0.928645
2.90016
1.14858
707.351
1121.39
349.39
107.787
0.177703
0.245106
0.0539126
0.283183
0.0407196
0.0205867
0.0620981
0.089321
0.859187
3.88168
1.23563
9.83489
1.03539
13.385
0.777474
6.19371
1.39603
0.839779
0.960423
1.23697
8.3833
33.5734
87.3688
23.1798
0.0210567
0.0531291
0.055751
0.0243865
0.105771
0.142661
0.20561
0.169864
7.66518
0.598165
6.1762
0.370394
5.11395
0.202132
6.92825
0.474654
3.065
0.67795
3.39747
0.860849
4.50401
0.530987
6.04349
0.494701
0.243525
0.358854
0.318855
0.169934
0.254608
0.20688
0.145907
0.124613
1.06667
0.00165172
0.0296147
0.00480088
0.0508078
0.00229381
0.0532981
0.00102322
0.0385825
0.00758186
0.018091
0.0135722
0.0259736
0.00691718
0.0389074
0.00565061
0.0175231
242.741
4.75153
353.117
4.14649
279.503
6.79703
195.505
12.1224
0.0758519
0.0585123
0.168983
0.250188
0.12987
0.142861
0.129565
0.23858
0.307701
3.32002
0.223413
3.73386
0.312198
3.11977
0.282838
2.33594
0.160847
12.4441
0.0427205
8.97431
0.105772
8.42444
0.201997
6.68905
0.0741195
0.0443449
0.0339233
0.0218628
0.0262297
0.0506821
19.5501
0.191541
13.5354
0.286168
22.3064
0.529736
24.7374
0.353188
10.9586
1.44977
5.90294
1.3707
11.7636
1.42048
19.7674
1.52982
32.2127
0.560466
30.6586
0.492659
46.9194
1.1631
40.5243
2.27461
49.6368
2.28226
20.0232
2.12428
21.4989
1.63482
0.02858
0.834533
0.0450554
0.848959
0.0514832
0.55939
0.114177
0.0293169
0.605018
0.0133052
0.0255864
0.0384465
0.0234306
2221.9
1.12254
1386.88
1.99876
522.421
3.30596
534.1
2.51528
18.8352
5.59965
3.02189
4.58738
1.61512
1.22961
1.69034
1.42367
0.0448451
0.0460574
0.0390002
0.0331708
8.75194
0.0713266
7.27086
0.0419405
1.94785
0.0396804
3.62014
0.0491956
0.00826815
0.00409187
0.00567311
0.00957315
0.0192373
0.0136472
0.00709398
0.0101878
0.0550074
0.0576591
0.00939785
0.0169108
0.00615895
0.0036235
0.00324528
0.00859719
1.28892
0.573537
0.779395
1.50683
0.0944675
0.0785702
0.13824
0.176854
29.7275
34.5253
22.4022
27.8303
6.21171
9.63664
14.5866
7.70211
2.43744
1.26035
1.31305
2.11389
0.287365
0.337319
0.264601
0.234836
0.826905
0.813172
0.653088
0.606343
0.502604
3.41771
0.462404
12.129
0.454074
7.27823
0.445665
0.617837
7.15139
0.515362
4.90443
0.616024
4.19647
0.699704
5.44035
0.648692
1.5261
0.927014
0.526016
0.201792
0.145789
0.310301
0.315085
1.37157
0.797755
0.0943786
0.148166
0.0989749
0.0796226
0.31158
0.30805
0.187557
0.279116
0.283764
0.102533
0.124183
0.187407
0.0223604
0.0399031
0.0647314
0.0550938
0.330976
0.303476
0.683396
1.20342
0.0608692
0.0994175
0.112491
0.0613376
0.16712
0.0926693
0.118627
0.133641
0.176362
0.17798
0.0751992
0.0956793
0.825226
0.315688
0.397946
0.831448
0.0258414
0.0269105
0.0517476
0.0473036
0.0272574
0.0238293
0.0400658
0.0418912
0.0316703
0.028353
0.0332054
0.0574502
0.0545246
0.0636934
0.0624481
1.82126
2.35828
3.03492
2.54955
1.47634
0.316675
0.120234
0.689589
1.29524
1.91288
1.11795
1.50013
0.0301572
0.0927265
0.0475092
0.0242025
0.0338851
0.0401515
0.0602284
0.0411031
4.61259
2.27796
2.24015
8.53298
0.0466423
0.0458515
0.0364212
0.0242581
2.55246
2.63405
6.10859
4.84309
0.0867055
0.0890591
0.365044
0.331393
1.90461
1.78832
1.27179
0.658931
0.334483
0.271339
0.22345
0.290672
0.0526339
0.0816042
0.0986833
0.0865336
0.364476
0.540303
1.59164
0.494837
0.0846089
0.0488512
0.0366897
0.0511111
0.222911
0.316208
0.179602
0.185623
0.140457
0.15356
0.167367
0.253242
2.14493
1.67206
3.02682
4.76365
2.76241
4.4568
6.61645
3.27282
39.066
21.6435
57.0887
103.263
0.569324
0.539978
0.935603
1.16586
1.19492
1.94106
2.29738
2.33514
762.585
238.267
419.319
1045.49
0.200433
0.317102
1.15041
1.71697
0.902038
0.828483
1512.01
1165.94
1193.35
2205.11
0.640035
0.656475
0.225889
0.405401
0.347917
0.29952
0.245178
0.214818
2.09087
1.18289
3.28779
2.25057
1.93388
1.78303
2.53495
79.425
147.079
371.964
234.606
5.93484
10.7949
14.5096
9.06834
8.65526
7.75416
6.14465
8.42735
6.0632
9.54938
6.12111
3.21096
10.1056
14.1484
10.3008
8.2514
0.166485
0.184233
0.0744816
0.107114
0.286877
0.415581
0.326812
0.325836
0.348296
0.405333
0.215165
0.298263
0.665001
0.442969
0.503698
0.938614
0.422641
0.289888
0.269253
0.375779
0.153484
0.222337
0.630784
0.437409
0.550165
0.542136
0.643137
0.782866
0.0726688
1.19878
48.8072
1.5518
0.0344392
52.4577
1.06493
0.0431506
1.09938
0.0116263
1.07212
0.0160173
0.521904
0.495522
0.734609
0.189872
0.812526
2.36313
0.539226
0.285061
0.133686
0.334274
0.303467
0.101344
0.102098
0.158761
0.0714226
0.0875489
0.339708
0.613858
0.0419065
0.235615
0.0586392
0.326552
0.057914
1.30622
0.885825
0.0360506
0.74568
0.859451
1.08884
4.99751
2.51092
2.05642
0.169192
1.41585
0.19322
1.11074
0.252565
1.01266
0.736538
0.238227
0.857722
0.30924
0.324566
5.92377
0.339072
6.79882
1.15628
0.102698
0.323567
4.31883
0.227068
7.51961
0.93337
0.0236064
0.638731
0.0149948
7.70451
0.647289
0.0674079
18.3502
0.697356
0.0530244
45.2353
21.1506
0.838319
0.0423099
0.956802
0.0267905
0.580769
0.0455958
0.86067
3.57422
0.0657546
0.695072
1.35657
1.45733
0.269349
0.717419
1.2693
2.00393
3.96078
0.0869171
0.189523
1.31807
0.921748
0.1614
0.134498
1.50379
0.256963
0.056451
0.082584
0.148593
1.02818
0.0221744
0.0565136