# vtk DataFile Version 2.0
Unstructured Grid by M++
ASCII
DATASET UNSTRUCTURED_GRID
POINTS 4225 float
  0.921875   0.593750 0
  0.921875   0.609375 0
  0.656250   0.609375 0
  0.671875   0.609375 0
  0.656250   0.546875 0
  0.671875   0.546875 0
  0.656250   0.562500 0
  0.656250   0.578125 0
  0.656250   0.593750 0
  0.671875   0.593750 0
  0.671875   0.562500 0
  0.671875   0.578125 0
  0.671875   0.625000 0
  0.671875   0.640625 0
  0.906250   0.578125 0
  0.890625   0.578125 0
  0.546875   0.515625 0
  1.000000   0.890625 0
  0.515625   0.640625 0
  0.515625   0.625000 0
  1.000000   0.875000 0
  0.515625   0.656250 0
  0.515625   0.687500 0
  0.515625   0.671875 0
  1.000000   0.921875 0
  0.546875   0.531250 0
  0.546875   0.546875 0
  0.546875   0.562500 0
  0.796875   0.531250 0
  0.953125   0.890625 0
  0.953125   0.875000 0
  0.953125   0.843750 0
  0.953125   0.828125 0
  0.953125   0.812500 0
  0.531250   0.562500 0
  0.531250   0.546875 0
  0.515625   0.562500 0
  0.515625   0.546875 0
  1.000000   0.812500 0
  0.781250   0.546875 0
  0.765625   0.546875 0
  0.859375   0.921875 0
  0.921875   0.671875 0
  0.609375   0.906250 0
  0.671875   0.656250 0
  0.609375   0.921875 0
  0.671875   0.671875 0
  0.671875   0.984375 0
  0.671875   1.000000 0
  0.906250   0.984375 0
  0.906250   1.000000 0
  0.921875   0.984375 0
  0.921875   1.000000 0
  0.859375   0.609375 0
  1.000000   0.781250 0
  0.515625   0.531250 0
  0.531250   0.531250 0
  0.531250   0.515625 0
  0.515625   0.515625 0
  1.000000   0.750000 0
  0.765625   0.531250 0
  0.781250   0.531250 0
  0.781250   0.515625 0
  0.765625   0.515625 0
  0.859375   0.875000 0
  0.921875   0.625000 0
  0.859375   0.890625 0
  0.921875   0.640625 0
  0.671875   0.968750 0
  0.671875   0.953125 0
  0.921875   0.968750 0
  0.921875   0.953125 0
  0.859375   0.593750 0
  0.859375   0.578125 0
  0.875000   0.578125 0
  0.828125   0.890625 0
  0.890625   0.640625 0
  0.593750   0.890625 0
  0.656250   0.640625 0
  0.593750   0.875000 0
  0.656250   0.625000 0
  0.578125   0.890625 0
  0.640625   0.640625 0
  0.578125   0.875000 0
  0.640625   0.625000 0
  0.968750   0.890625 0
  0.984375   0.890625 0
  0.968750   0.812500 0
  0.968750   0.828125 0
  0.984375   0.812500 0
  0.984375   0.828125 0
  1.000000   0.828125 0
  0.656250   0.953125 0
  0.640625   0.953125 0
  0.890625   0.968750 0
  0.906250   0.968750 0
  0.906250   0.953125 0
  0.890625   0.953125 0
  0.531250   0.703125 0
  0.531250   0.718750 0
  0.546875   0.718750 0
  0.546875   0.703125 0
  0.593750   0.578125 0
  0.562500   0.578125 0
  0.578125   0.578125 0
  0.843750   0.578125 0
  0.828125   0.578125 0
  0.828125   0.812500 0
  0.890625   0.562500 0
  0.828125   0.796875 0
  0.953125   0.906250 0
  0.953125   0.921875 0
  0.531250   0.859375 0
  0.593750   0.609375 0
  0.531250   0.843750 0
  0.593750   0.593750 0
  0.515625   0.843750 0
  0.578125   0.593750 0
  0.515625   0.859375 0
  0.578125   0.609375 0
  0.937500   0.859375 0
  1.000000   0.609375 0
  0.921875   0.859375 0
  0.984375   0.609375 0
  0.937500   0.796875 0
  0.921875   0.796875 0
  0.984375   0.546875 0
  0.562500   0.812500 0
  0.843750   0.796875 0
  0.843750   0.812500 0
  0.859375   0.796875 0
  0.859375   0.812500 0
  1.000000   0.906250 0
  0.984375   0.906250 0
  0.968750   0.906250 0
  0.968750   0.921875 0
  0.984375   0.921875 0
  0.593750   0.921875 0
  0.656250   0.671875 0
  0.593750   0.906250 0
  0.656250   0.656250 0
  0.578125   0.906250 0
  0.640625   0.656250 0
  0.578125   0.921875 0
  0.640625   0.671875 0
  1.000000   0.843750 0
  0.984375   0.843750 0
  0.968750   0.843750 0
  0.968750   0.859375 0
  0.968750   0.875000 0
  1.000000   0.859375 0
  0.984375   0.859375 0
  0.984375   0.875000 0
  0.656250   1.000000 0
  0.656250   0.984375 0
  0.656250   0.968750 0
  0.640625   0.968750 0
  0.640625   1.000000 0
  0.640625   0.984375 0
  0.843750   0.921875 0
  0.906250   0.671875 0
  0.843750   0.906250 0
  0.906250   0.656250 0
  0.828125   0.906250 0
  0.890625   0.656250 0
  0.828125   0.921875 0
  0.890625   0.671875 0
  0.781250   0.859375 0
  0.843750   0.609375 0
  0.781250   0.843750 0
  0.843750   0.593750 0
  0.765625   0.843750 0
  0.828125   0.593750 0
  0.765625   0.859375 0
  0.828125   0.609375 0
  0.968750   0.609375 0
  0.906250   0.859375 0
  0.953125   0.609375 0
  0.890625   0.859375 0
  0.937500   0.609375 0
  0.875000   0.859375 0
  0.562500   0.593750 0
  0.546875   0.593750 0
  0.531250   0.593750 0
  0.531250   0.609375 0
  0.562500   0.609375 0
  0.546875   0.609375 0
  0.609375   0.625000 0
  0.546875   0.875000 0
  0.609375   0.640625 0
  0.546875   0.890625 0
  0.625000   0.640625 0
  0.562500   0.890625 0
  0.625000   0.625000 0
  0.562500   0.875000 0
  0.921875   0.843750 0
  0.984375   0.593750 0
  0.937500   0.843750 0
  1.000000   0.593750 0
  0.921875   0.812500 0
  0.921875   0.828125 0
  0.984375   0.578125 0
  0.937500   0.828125 0
  1.000000   0.578125 0
  0.937500   0.812500 0
  1.000000   0.562500 0
  0.578125   0.828125 0
  0.921875   0.781250 0
  0.937500   0.781250 0
  1.000000   0.531250 0
  0.921875   0.765625 0
  0.984375   0.515625 0
  0.937500   0.765625 0
  0.625000   0.656250 0
  0.562500   0.906250 0
  0.609375   0.656250 0
  0.546875   0.906250 0
  0.625000   0.671875 0
  0.562500   0.921875 0
  0.609375   0.671875 0
  0.546875   0.921875 0
  0.859375   0.781250 0
  0.859375   0.765625 0
  0.828125   0.671875 0
  0.765625   0.921875 0
  0.828125   0.734375 0
  0.765625   0.984375 0
  0.875000   0.843750 0
  0.937500   0.593750 0
  0.890625   0.843750 0
  0.953125   0.593750 0
  0.906250   0.843750 0
  0.968750   0.593750 0
  0.906250   0.828125 0
  0.968750   0.578125 0
  0.937500   0.578125 0
  0.953125   0.578125 0
  0.906250   0.765625 0
  0.875000   0.765625 0
  0.953125   0.515625 0
  0.531250   0.781250 0
  0.671875   0.890625 0
  0.531250   0.921875 0
  0.953125   0.656250 0
  0.828125   0.781250 0
  0.843750   0.781250 0
  0.703125   0.984375 0
  0.687500   0.984375 0
  0.843750   0.875000 0
  0.906250   0.625000 0
  0.671875   0.781250 0
  0.734375   0.531250 0
  0.906250   0.609375 0
  0.671875   0.765625 0
  0.734375   0.515625 0
  0.906250   0.593750 0
  0.890625   0.593750 0
  0.875000   0.593750 0
  0.828125   0.875000 0
  0.890625   0.625000 0
  0.656250   0.781250 0
  0.718750   0.531250 0
  0.890625   0.609375 0
  0.656250   0.765625 0
  0.718750   0.515625 0
  0.875000   0.609375 0
  0.640625   0.765625 0
  0.703125   0.515625 0
  0.812500   0.921875 0
  0.875000   0.671875 0
  0.812500   0.875000 0
  0.875000   0.625000 0
  0.640625   0.781250 0
  0.703125   0.531250 0
  0.812500   0.515625 0
  0.750000   0.828125 0
  0.812500   0.578125 0
  0.687500   1.000000 0
  0.937500   0.656250 0
  0.875000   0.906250 0
  0.531250   0.656250 0
  0.890625   0.906250 0
  0.906250   0.906250 0
  0.562500   0.656250 0
  0.906250   0.890625 0
  0.562500   0.640625 0
  0.968750   0.625000 0
  0.906250   0.875000 0
  0.562500   0.625000 0
  0.937500   0.640625 0
  0.875000   0.890625 0
  0.890625   0.890625 0
  0.546875   0.640625 0
  0.953125   0.625000 0
  0.890625   0.875000 0
  0.546875   0.625000 0
  0.546875   0.687500 0
  0.890625   0.937500 0
  0.937500   0.625000 0
  0.875000   0.875000 0
  0.531250   0.625000 0
  0.531250   0.640625 0
  0.546875   0.656250 0
  0.937500   0.968750 0
  0.687500   0.968750 0
  0.953125   0.968750 0
  0.703125   0.968750 0
  0.968750   0.968750 0
  0.718750   0.968750 0
  0.718750   0.906250 0
  0.968750   0.953125 0
  0.718750   0.953125 0
  0.968750   0.937500 0
  0.859375   0.906250 0
  0.921875   0.656250 0
  0.718750   0.937500 0
  0.828125   0.531250 0
  0.937500   0.953125 0
  0.687500   0.953125 0
  0.953125   0.953125 0
  0.703125   0.953125 0
  0.703125   0.890625 0
  0.843750   0.515625 0
  0.953125   0.937500 0
  0.953125   1.000000 0
  0.703125   0.937500 0
  0.937500   0.937500 0
  0.687500   0.937500 0
  0.703125   0.906250 0
  0.718750   0.890625 0
  0.687500   0.890625 0
  0.687500   0.765625 0
  0.750000   0.515625 0
  0.687500   0.781250 0
  0.750000   0.531250 0
  0.859375   0.937500 0
  0.921875   0.687500 0
  0.687500   0.796875 0
  0.750000   0.546875 0
  0.578125   0.750000 0
  0.515625   1.000000 0
  0.843750   0.765625 0
  0.578125   0.734375 0
  0.515625   0.984375 0
  0.562500   0.734375 0
  0.828125   0.750000 0
  0.765625   1.000000 0
  0.562500   0.750000 0
  0.562500   0.718750 0
  0.578125   0.515625 0
  0.921875   0.703125 0
  0.921875   0.718750 0
  0.593750   0.515625 0
  0.687500   0.875000 0
  0.750000   0.625000 0
  0.578125   0.531250 0
  0.921875   0.750000 0
  0.703125   0.875000 0
  0.765625   0.625000 0
  0.593750   0.531250 0
  0.875000   0.968750 0
  0.937500   0.718750 0
  0.703125   0.828125 0
  0.765625   0.578125 0
  0.937500   0.734375 0
  0.703125   0.812500 0
  0.765625   0.562500 0
  0.890625   0.687500 0
  0.828125   0.937500 0
  0.656250   0.796875 0
  0.718750   0.546875 0
  0.890625   0.718750 0
  0.828125   0.968750 0
  0.906250   0.796875 0
  0.718750   0.828125 0
  0.781250   0.578125 0
  0.890625   0.703125 0
  0.828125   0.953125 0
  0.656250   0.859375 0
  0.906250   0.781250 0
  0.968750   0.531250 0
  0.546875   0.796875 0
  0.671875   0.796875 0
  0.734375   0.546875 0
  0.843750   0.953125 0
  0.906250   0.703125 0
  0.671875   0.875000 0
  0.718750   0.812500 0
  0.781250   0.562500 0
  0.875000   0.812500 0
  0.531250   0.890625 0
  0.593750   0.640625 0
  0.937500   0.890625 0
  0.875000   0.781250 0
  0.609375   0.703125 0
  0.546875   0.953125 0
  0.890625   0.796875 0
  0.625000   0.718750 0
  0.562500   0.968750 0
  0.906250   0.812500 0
  0.734375   0.859375 0
  0.796875   0.609375 0
  0.718750   0.875000 0
  0.781250   0.625000 0
  0.750000   0.859375 0
  0.812500   0.609375 0
  0.812500   0.546875 0
  0.750000   0.812500 0
  0.734375   0.843750 0
  0.796875   0.593750 0
  0.750000   0.843750 0
  0.812500   0.593750 0
[...]
CELL_DATA 4096
SCALARS scalar_value float 1
LOOKUP_TABLE default
3.43748
3.69221
3.53568
3.70615
2.13425
3.24219
3.02591
3.07195
3.7162
2.69914
2.41765
2.59076
3.1179
2.94661
3.55332
3.22883
62.7581
28.9459
15.5863
36.0598
23.9659
36.667
35.614
21.6416
14.6418
22.247
25.6787
17.8541
0.368662
0.503796
0.278993
0.318206
8.30834
13.7239
8.18569
8.3928
0.332934
0.315366
0.250626
0.32045
0.0267336
0.0215937
0.0387671
0.050455
0.531609
0.495514
0.995823
1.30032
0.0570397
0.0646717
0.0597736
0.064683
1.84928
1.96498
1.9411
2.54248
0.164022
0.301457
0.214652
0.170885
22.9683
30.6604
62.4188
29.9392
0.220342
0.291432
0.209643
0.134622
5.58197
8.38094
2.73293
2.9716
11.0606
13.1236
3.73741
5.23383
12.3582
18.9565
12.7591
5.02815
0.0511252
0.0470158
0.0860376
0.0694344
0.0643629
0.187746
0.167479
0.082528
73.0178
31.2576
29.3322
67.3235
36.7614
16.9135
17.3696
47.3264
0.53702
0.481259
1.30728
1.33121
0.0773699
0.0315282
0.0367278
0.062728
45.6781
48.0349
155.432
138.937
99.5015
43.3991
75.7337
130.909
0.161144
0.129582
0.15175
0.107259
1.39205
0.92145
0.734414
1.2805
4.26782
12.2212
9.17691
5.70441
16.5849
17.4205
9.50804
13.0229
0.0505419
0.0357005
0.0644754
0.066226
0.215298
0.212083
0.0818174
0.0950553
2.24876
8.75626
7.91328
2.8929
0.0583822
0.0685954
0.187545
0.127748
15.1225
21.4845
20.4108
25.8419
0.28273
0.185641
0.334458
0.662834
0.466353
0.115061
0.0628279
0.23095
0.654967
0.840649
1.01661
0.762025
0.368822
0.580931
0.278121
0.161886
1.32536
1.09735
0.792667
0.856356
0.368334
0.445445
0.448231
0.374327
0.0295203
0.0370358
0.0254424
0.0131207
0.0706567
0.133373
0.389232
0.229753
4.59289
1.9257
2.69849
7.73668
0.348024
0.364161
0.346462
0.373703
0.254295
0.105742
0.0882055
0.217115
0.0195582
0.0565517
0.0324732
0.0139066
1.79467
1.93051
2.6928
1.72517
0.223025
2.00948
19.1015
0.449284
0.314367
18.6186
14.3468
6.68082
38.2706
11.0124
77.3098
35.8783
144.485
40.2649
60.6154
5.60056
414.43
10.0849
255.556
7.18249
100.681
3.05482
135.525
17.7353
19.4943
10.8208
116.442
174.99
33.1409
1.24359
226.619
127.27
43.741
3.34743
75.9351
19.4566
44.0514
10.6653
23.7348
13.771
19.4272
11.0253
0.29746
1.89363
0.353462
3.54369
4.26315
3.51057
5.7978
9.51832
32.0159
4.83315
4.22254
24.143
2.72791
13.8782
1.89543
10.0258
15.1227
4.43301
0.104015
0.375176
0.173172
0.778683
0.306791
0.986502
3.00949
1.80435
0.8378
26.6206
88.5474
0.206276
0.388384
84.0133
3.52798
72.6494
1.62845
112.894
2.33923
135.691
1.2754
237.86
1.26831
50.7407
2.70736
256.36
1.81352
148.923
2.03552
1.03391
0.214883
38.2104
20.5883
5.73355
16.3051
0.780815
22.1251
4.41103
77.6394
69.5205
0.804612
53.4927
1.39822
19.2294
2.08288
47.8913
0.483125
59.0336
16.5964
54.0037
0.744707
64.2028
8.27101
0.150517
0.262407
0.356396
0.0320471
16.1947
397.589
7.50485
489.358
4.37435
572.579
39.112
109.45
89.4824
10.4919
30.4124
72.5622
66.8112
19.3956
0.209089
0.41609
0.749883
0.0177853
0.73249
96.2108
14.0708
0.700362
1.33552
0.217616
0.583091
69.4327
19.5396
1.84943
3.2156
93.0696
8.92521
34.215
82.5933
0.198159
36.0526
0.201446
22.5356
3.12614
23.0902
3.27637
18.9439
6.67356
16.0749
1.25868
30.2885
1.62532
29.4975
1.37354
37.2269
1.18227
8.15478
3.02062
1.4451
2.22104
0.793128
0.997062
2.06271
0.586635
1.29685
0.265503
0.574855
0.399908
0.674839
12.1611
5.92339
0.585263
3.03769
3.21002
0.498703
6.40362
0.468194
277.58
0.713957
0.169172
0.312167
0.182896
0.030303
183.752
0.727362
36.6853
3.8267
0.427233
0.019569
220.665
0.788617
11.5386
3.2366
32.2811
1.6862
167.534
0.622876
83.9505
3.15415
14.8731
1.15418
9.54637
1.30254
25.9149
4.28956
43.6154
2.34924
10.2858
4.67802
3.83536
2.54712
1.62791
3.11227
22.4042
1.4363
41.6973
55.4938
17.4819
29.829
57.8709
13.0709
77.1777
2.60381
49.8212
18.2233
38.0018
86.6919
57.4636
29.3598
0.446593
0.216256
18.4445
6.7453
77.4372
74.3054
0.60357
0.193705
29.9248
103.716
76.5174
27.4375
22.1675
32.9656
8.08736
11.29
5.30686
5.05339
16.8678
8.3143
18.2632
18.7995
17.2897
175.725
52.5806
137.736
4.0697
51.9534
102.289
11.0156
0.161504
0.222098
0.322774
0.139492
38.8254
32.0709
5.40835
10.378
0.31119
0.311921
0.316796
0.282966
1.41036
42.4152
0.164533
0.103475
0.131368
0.256907
0.332361
0.045178
0.137407
35.2543
6.29556
79.3848
2.6369
1.45408
0.492959
49.3638
82.8496
3.8946
55.3896
12.937
50.747
341.576
0.111947
0.143439
0.0711922
0.0812824
63.5435
82.8474
3.17155
0.52685
0.389321
22.2408
76.8225
17.1007
48.555
7.13051
0.249619
0.147114
0.270393
282.752
0.311691
162.204
0.25642
0.443575
0.0991515
4.13041
35.4836
0.662728
707.224
6.52915
191.744
0.266906
2.46459
0.433286
79.7757
11.0421
1.27343
40.1103
0.205248
178.711
0.393529
68.5389
20.4889
1.44166
37.485
0.261512
0.185929
0.610043
151.591
0.291668
83.2384
3.98184
1.27426
85.4164
0.159226
0.0909801
0.189267
215.798
407.01
0.280173
0.480415
0.0683455
0.119047
16.8258
37.2423
419.568
1.98862
16.7723
0.311091
140.185
0.611563
0.447066
542.464
32.0396
74.1179
15.8663
0.203784
0.28472
0.222438
0.260761
0.0276714
0.267799
8.33472
143.247
1.90845
0.330213
40.345
4.1879
65.5554
7.5106
0.463574
0.507788
0.045986
0.138431
0.334575
0.221976
0.128761
2.99124
47.0672
0.46817
20.2487
1.11241
0.404979
156.518
2.56555
0.197178
0.92166
0.241266
116.718
0.571397
0.305166
0.400782
148.362
154.524
0.397472
26.8013
0.488136
0.69596
0.404299
286.851
0.226112
35.2949
127.723
6.39095
0.278528
0.118335
0.2582
33.3882
110.441
6.37976
0.979358
59.2769
0.0817813
0.178351
0.100601
0.0804114
8.2169
0.37024
111.699
4.66141
0.126753
1.4788
113.633
9.85774
0.392954
5.40836
0.714288
0.360147
2.02774
99.7979
2.33996
127.195
2.3786
251.98
2.16436
191.781
4.72752
412.231
24.8547
0.966762
2.58539
326.421
3.63951
303.831
0.257749
0.481373
0.477961
44.0962
6.26109
505.719
32.335
2.37247
195.338
3.56158
466.445
2.15548
275.206
1.64005
166.545
0.344144
2.15934
31.9199
0.968812
151.922
10.9117
28.4018
0.945758
224.732
1.94609
296.695
0.218504
9.93393
0.198664
1.95167
22.1226
1.58769
105.163
1.82088
0.181864
0.104622
0.111775
0.725464
0.108785
0.538258
0.0788062
0.638069
0.0697551
1.00682
0.165144
11.9051
142.489
33.0772
26.2698
79.3318
42.6697
11.8846
90.6173
37.1914
0.140348
18.0251
31.0757
0.145868
0.524436
39.4564
49.0507
0.337735
6.85065
33.5943
0.155031
0.151508
0.111981
0.152132
2.1041
0.283019
30.8631
0.801588
0.120042
4.28701
120.302
0.894221
2.96666
3.31711
112.219
0.238155
0.200582
5.62515
107.468
1.78443
1.39398
0.5118
2.83759
20.1726
97.2018
33.0694
109.945
53.7868
123.363
46.3109
90.6571
68.1433
0.995427
79.8106
1.72228
53.0371
1.77619
56.5649
1.39094
0.263947
23.1191
1.15124
11.7803
1.22487
0.173328
15.918
1.58828
23.4384
0.918959
0.483989
0.501637
0.331066
0.294886
0.656735
0.60429
0.696999
0.882682
0.181625
0.299071
0.412256
0.275718
7.98775
245.944
8.95412
170.507
5.34878
488.905
6.03762
561.412
20.168
37.3623
27.5955
67.2716
69.6385
48.097
30.457
24.0729
2.26489
1.55697
1.48068
2.19542
22.4121
14.3013
7.88844
11.6853
0.216693
45.6984
0.203651
23.7632
0.0907931
10.8651
0.0607304
16.5961
0.477039
0.630815
0.336707
0.412257
0.200004
0.257692
0.233994
0.221495
67.4526
26.7994
58.1542
60.3318
59.2117
99.7774
82.3517
37.6847
0.226529
0.444999
0.915666
0.333269
0.59341
1.08665
1.74971
1.18491
0.236354
9.55545
0.311394
0.254836
0.236494
1.55339
1.17364
0.7075
0.7372
6.41681
0.384342
8.02202
0.168982
7.55813
0.0929622
8.8369
0.242161
12.0172
1.73665
4.03394
2.55287
6.6124
3.83622
18.2505
1.78833
127.015
0.460221
141.771
1.05117
127.768
0.828133
130.555
0.51307
0.168612
0.21434
0.179268
0.215305
3.07274
160.074
3.89038
295.536
4.69798
307.555
3.71596
104.927
0.0434292
0.504722
0.0297776
0.73693
0.0326906
4.17788
0.0698408
2.73075
3.59381
430.957
4.06829
730.212
4.02369
724.948
3.82791
449.162
2.37291
2.54921
1.92252
1.10473
2.65158
4.65645
3.16741
2.13641
1.31205
0.608833
0.526401
1.10443
0.170289
0.204212
0.0619205
0.23445
0.0837521
0.148721
0.202702
0.132012
0.0143058
1.8532
0.0204787
5.04801
0.0293983
5.26983
0.0171909
1.11665
0.32885
0.363436
0.475216
0.477214
0.431674
0.536605
1.12115
0.721242
10.4482
8.3923
9.85177
10.1124
2.0854
1.64538
3.36117
3.80829
3.36283
8.93393
5.22579
6.8087
3.9951
5.16589
1.93961
7.14928
42.6469
0.559102
1.1222
71.1009
0.876407
138.628
0.924032
112.301
0.906635
0.276591
0.236238
0.390192
0.298127
8.33744
28.3016
4.77101
38.9791
5.30266
188.696
9.7359
63.372
60.2525
49.0572
55.8425
78.5194
20.7728
13.7733
19.3029
38.0777
0.553494
0.549662
0.726406
1.06223
0.368234
0.123222
1.30286
0.282803
0.673826
0.879016
0.33447
0.375772
0.663897
0.395772
0.579718
0.959537
0.378875
0.591781
0.404744
0.320827
0.27206
0.252993
0.338949
0.230185
0.568931
0.475071
0.274471
0.332928
0.578751
0.839548
0.603297
0.379716
0.180581
0.218638
0.256292
0.0437898
0.0923295
0.116582
0.0919409
0.0314905
0.0432498
0.0267846
0.0188213
0.300796
0.0907216
0.108026
0.44734
0.172314
0.139754
0.380713
0.461397
16.7337
10.2931
9.78931
18.6769
1.27213
0.428738
0.227469
0.63166
0.0845972
0.102985
0.142396
0.103867
0.0757626
0.126902
0.20455
0.099416
2.04088
3.17188
3.11603
2.07637
5.38369
2.88131
1.72079
2.66253
0.48513
0.242287
0.187447
0.407716
0.554676
1.11552
1.25644
0.683111
1.11415
1.7216
0.846657
0.626349
0.15496
0.0892174
0.0543249
0.143629
1.07429
0.891724
0.594481
0.797449
0.229548
0.318683
0.782109
0.37149
0.670764
0.366916
0.195431
0.338203
1.66833
1.79767
0.880005
1.12762
0.952504
0.480406
0.498377
1.2617
0.0640752
0.103612
0.172593
0.0780901
0.0894363
0.06683
0.0289016
0.0333032
0.387662
0.190468
0.221933
0.417406
0.206102
0.651396
1.28629
0.0324564
0.022899
0.0260224
0.0278397
0.211291
0.113599
0.159304
0.364173
0.0307708
0.021115
0.0233971
0.0182861
0.24417
0.0507217
0.0853617
0.29892
0.184886
0.165869
0.223337
0.189908
0.0421754
0.0374747
0.189945
0.107168
0.237158
0.246299
0.598364
0.376865
0.168104
0.14812
0.181924
0.204673
0.539159
0.300974
0.283437
1.07878
4.18661
2.77053
4.45202
7.09835
0.259043
0.299142
0.337997
0.256228
0.174015
0.0948126
0.0430102
0.0601733
0.010849
0.00971204
0.0105572
0.00932248
0.0282683
0.0184893
0.0164146
0.0219665
0.0236719
0.0541023
0.071992
0.033902
0.0509184
0.0292258
0.0424434
0.0868779
4.52467
4.25277
7.0376
4.93773
30.0365
42.1656
39.6122
37.2802
0.0733399
0.0556345
0.0300088
0.0923077
24.8627
66.5098
41.9355
32.2926
0.323709
0.217587
0.37513
0.504002
19.3305
21.1864
19.5202
29.2859
0.12827
0.172337
0.519985
0.396839
0.0380523
0.0730003
0.0410131
0.0264474
0.0829988
0.167921
0.0668378
0.0560696
0.0303782
0.0530491
0.0380472
0.0384546
0.280172
0.219994
0.162004
0.155173
0.517879
1.3259
9.3157
0.0175303
49.2989
1.14892
0.210392
0.0490648
0.438503
0.128474
0.712437
0.311347
0.151495
0.0393658
0.777288
0.0176052
3.337
0.153294
3.08652
0.139873
1.57738
0.097299
0.685305
0.114565
5.52196
0.367546
3.70382
1.50357
4.27889
0.019532
3.71139
1.01167
0.0250647
0.285991
0.107963
0.0353485
0.16007
18.7331
0.0331227
0.0739916
47.537
0.0920676
0.107626
0.089925
0.269878
0.694955
4.48697
0.473885
0.0282034
0.690631
1.25147
1.10627
0.038965
0.352028
1.09642
1.63865
0.0527699
3.1073
0.805669
2.1247
0.798917
1.5681
0.873915
0.170506
1.24244
2.39403
0.733171
0.269949
2.23374
0.24749
16.6993
5.77985
0.942266
6.64145
1.50921
0.407358
4.4488
5.47718
1.2672
0.432704
1.91151
0.96764
4.22595
1.87074
5.47658
2.31947
4.97018
2.64576
6.19774
1.50585
6.40853
0.392937
0.11899
1.38252
0.268599
0.0706363
0.0736167
0.42913
0.0435885
0.383968
0.0730207
0.944721
0.104345
3.86951
1.2313
2.73074
3.01015
3.22242
2.38887
4.71809
0.690697
0.0819732
0.0888732
0.194048
0.11662
0.163826
0.0589232
0.0626652
0.0474848
77.4738
2.28558
0.0277515
2.82724
0.0345373
1.05278
0.486526
0.0346581
0.263605
0.0610891
0.0288965
3.30123
0.171675
0.0518403
2.5762
7.44008
1.54157
8.92426
2.49362
8.07221
1.71907
1.36085
1.79957
0.807725
1.62399
7.69121
1.01334
1.77315
0.122559
26.5803
0.0284547
0.155807
1.99568
70.1553
0.042046
0.0677264
132.254
0.0489287
68.7193
0.0350286
0.00764989
50.1845
0.0137021
8.98823
0.40909
0.145479
1.18757
7.62405
0.963404
4.74985
1.0019
10.5623
2.07446
0.467392
2.06348
0.671181
0.740633
3.64833
3.02741
0.559636
2.53986
0.399818
0.693561
0.0903683
0.949629
0.0741683
1.53314
0.0843649
1.13873
4.07645
1.25501
1.39857
1.42789
1.64411
2.27864
3.80573
2.01984
2.53238
2.10789
0.935024
3.03195
1.0852
0.947689
67.0174
96.3532
88.662
81.625
0.765749
0.57144
1.33171
0.230319
1.73215
1.85974
1.46055
1.5128
0.25888
0.0494216
0.0693533
9.79238
18.1013
0.030428
0.0574174
0.368917
0.477722
0.175315
5.51693
0.700803
0.207585
1.23903
0.182838
0.384964
4.42619
1.27285
0.409443
9.87927
2.364
3.29037
0.221527
2.94445
2.13647
35.4681
0.0516992
1.52695
0.522643
2.54224
0.46147
64.5583
0.0316062
2.14406
55.0824
13.2763
0.64247
0.108287
0.0122855
0.0551586
0.0580799
4.47576
0.333298
2.44636
0.126131
8.12131
4.68705
0.229609
30.0736
27.3581
5.95833
0.165243
11.1487
0.241194
0.0639465
0.026577
0.104211
1.02375
0.10812
0.0413497
0.100908
0.0939027
0.0163934
4.70035
0.555722
0.110475
0.0451356
18.4556
1.00371
3.05102
0.0627183
0.012619
0.0710726
12.7143
21.4215
1.11298
13.1978
1.95857
4.14502
0.798912
52.4823
3.0315
0.266084
1.02052
53.8531
0.0187702
0.167683
20.7249
0.151474
0.228506
0.188551
14.4588
0.280567
0.0594005
0.242405
36.3275
0.114668
7.58484
0.247771
0.0678666
0.130785
6.89279
0.0234513
102.177
0.00697978
45.9422
5.94518
0.250185
2.61939
0.0943544
0.130989
4.53806
86.1636
1.11758
0.195571
6.75158
19.2493
4.18102
44.8026
0.433652
1.63139
0.116815
0.0160063
120.75
41.8189
0.5899
3.86335
0.270121
20.3916
0.290077
4.60532
3.67017
26.9684
0.530059
0.129527
4.33143
4.55597
0.252751
4.37474
1.29183
5.09614
0.182905
0.118157
2.42286
1.54129
1.80518
1.39099
0.651899
0.0541948
2.84687
0.589836
0.0256554
0.0391839
0.8179
1.07461
0.98186
0.0269505
0.0750389
1.43468
0.00528068
88.6176
15.4587
0.349918
0.560694
0.0097648
106.514
0.0197351
29.1745
1.4969
0.387939
1.36569
0.073443
0.0671025
3.68543
1.73786
0.289517
0.00882935
13.9992
0.395465
0.171393
0.0103516
103.694
14.9395
1.0535
0.402593
0.0263735
0.312579
0.199403
0.71655
13.3031
0.0300963
3.92187
49.2829
1.2229
5.15988
0.0926116
3.69943
2.86888
0.678757
0.00835944
49.179
5.67557
0.688521
0.0133302
110.946
36.7283
1.22908
0.0582586
0.0296628
0.0259902
0.0881271
0.0860646
0.0842693
0.0179646
0.074671
5.97926
0.988568
0.197517
0.0635828
0.0202595
0.0820861
0.0185472
0.0478241
5.22911
28.3991
1.49461
0.137585
2.29168
0.151724
0.0779081
0.0588021
47.8841
0.0355673
0.830753
0.97677
0.904354
2.55012
0.0354677
0.0338531
0.0524005
0.051564
0.053885
0.0601588
0.0825917
0.317641
0.0138901
74.2173
13.4471
1.92041
0.0557423
1.58888
0.073706
0.0501294
0.945857
0.207577
0.0590328
2.40083
0.12043
0.105137
6.27136
0.0425797
0.0648091
6.12928
3.17976
2.37696
0.0747118
10.3855
0.0775441
12.7269
1.6293
1.10942
3.71784
0.51789
0.0176486
1.31273
0.255219
8.13487
0.710163
0.105745
1.65444
0.147039
4.57938
0.248003
0.206493
5.61156
11.1482
0.661118
0.156023
0.613314
0.223668
3.67068
8.35721
0.386845
0.161516
3.68099
0.0267345
5.24649
19.8794
1.5558
3.0397
7.78897
0.0285769
4.10743
0.0239162
10.5512
0.0702995
4.48306
0.0684912
1.87962
30.5067
4.64627
35.6749
1.94298
0.00730602
25.1379
0.0150983
18.3695
0.0134864
55.3764
12.017
3.73471
0.0159622
22.215
9.182
4.47961
37.2856
0.0159152
0.0402039
0.230335
0.65483
0.462366
0.120302
0.0406269
0.814619
0.0417568
0.481258
0.0398259
0.683892
0.040057
1.09416
0.778241
0.655472
2.64379
3.07587
97.1265
44.6343
0.233724
37.0319
8.848
5.99195
3.4189
6.77316
0.196911
0.0429429
0.161546
0.048388
0.307682
0.0470023
0.309691
0.042103
0.0908521
0.170037
0.101239
0.074247
24.9752
8.70066
6.8521
14.1383
2.24268
2.51175
2.35334
2.66036
4.83485
3.75464
11.504
14.0071
1.49267
0.773181
0.711501
1.60198
0.366125
0.888258
0.518889
0.446852
0.313401
0.550322
0.722713
0.624825
0.30543
0.175163
0.0818121
0.166982
6.15055
6.37645
11.1328
4.36497
0.806297
0.835779
1.78592
1.57367
0.901308
0.0648909
0.503356
0.100675
0.593202
0.161751
0.227206
0.141131
0.156677
0.0069785
14.8174
0.00968986
10.4646
0.0191797
7.00444
0.0160113
7.30268
5.30826
1.05199
2.75042
0.898205
2.0001
2.37156
2.11415
3.01981
0.163559
0.149546
0.335945
0.484457
0.915417
81.4348
0.722595
1.07281
1.34937
0.422211
52.4956
0.214435
27.2147
0.217623
9.18992
0.437216
20.5671
0.11183
20.7466
0.0766012
13.0213
0.0757449
22.4104
0.11063
41.5702
1.45483
2.40967
1.78688
0.91209
1.10528
0.053675
0.0532802
0.0386425
0.155412
0.0231334
0.084768
0.0274716
0.0389248
0.0699181
1.1583
0.0541497
1.51453
0.0619881
0.73787
0.0461149
0.487102
0.0253473
0.0164324
0.0167383
0.0218826
0.0226736
0.0317107
0.0289088
0.0884514
0.0211655
0.203221
0.0362675
0.248125
0.0330173
0.132978
0.632933
0.0749042
0.661306
0.145763
0.645124
0.0956159
0.0177756
0.32108
0.0480945
0.00598564
0.0105339
0.00762215
0.00834395
1.08012
0.376332
0.924148
0.970309
1.27078
1.39505
1.59636
0.498456
2.23822
4.44781
7.64257
5.46355
0.0891006
0.0742507
0.0472107
0.0592094
3.62568
1.84955
0.741272
2.00366
0.112322
0.126742
0.10555
0.0837955
0.115816
0.268144
0.172974
0.558791
35.3012
26.9964
46.4617
44.0236
1.40612
2.38555
3.5904
4.1235
105.555
106.87
58.8361
59.534
17.1251
13.1234
7.2315
7.42275
2.47832
11.3555
12.9867
3.19783
0.224998
0.986704
2.29103
0.425432
0.340997
0.203695
0.216015
0.374365
0.668292
0.545885
0.35403
0.539343
0.0496198
0.0670978
0.0439301
0.0451331
0.0119751
0.0454908
0.061054
0.015339
6.36978
14.5102
16.0371
7.26308
0.320944
0.267018
0.129333
0.0886807
0.106591
0.186814
0.284765
0.541579
1.47218
0.398374
0.59294
0.304139
0.564473
0.75466
1.46229
0.0209751
0.0348384
0.0399343
0.0428432
0.0605622
0.0288556
0.0966016
0.128564
0.533252
0.517377
1.77747
1.74338
2.06121
2.1939
1.08585
0.659002
1.40406
1.89094
0.559042
1.59294
1.4688
0.494513
2.65679
3.50612
2.24159
2.218
17.1621
22.4901
59.1097
57.314
5.4965
15.7847
8.08766
4.16714
0.723629
1.41482
1.142
0.636041
8.17912
12.4021
5.11199
3.55699
73.3993
24.2558
19.4322
50.3628
1.01201
2.1282
1.94549
2.38155
1.0792
0.593768
0.565686
1.13527
1.47587
0.5522
0.353151
4.10088
2.41232
3.49834
7.13377
16.9825
67.8609
23.3653
8.04149
13.7292
19.2788
9.05369
6.66738
328.376
147.821
49.3518
105.929
13.4245
25.2861
14.2848
15.7611
5.46478
3.52328
3.75435
3.51146
542.043
326.273
678.565
1732.31
14.2162
9.49236
7.53908
11.5579
57.9132
179.613
222.234
82.9663
5.56699
5.63739
4.45224
3.96039
0.305808
0.170229
0.284157
0.217801
0.187631
0.463904
0.731541
0.163685
3.99853
3.00531
2.30449
3.69248
1.24154
0.978728
1.51948
2.39794
1.4725
2.67284
3.37344
2.35089
0.382117
0.578762
0.853904
0.648259
1.38988
1.61127
1.25434
1.81057
1.21428
0.870733
1.35875
2.45564
1.87494
3.9816
10.4108
5.61804
1.82684
1.24457
0.79504
1.18926
1.22591
1.82564
3.26083
2.70345
1.2056
0.869912
2.99511
2.91684
0.87868
0.433359
0.701138
0.942198
0.268205
0.601618
0.12441
0.473583
0.561539
0.278202
3.14561
4.2797
2.29627
1.82025
0.549809
0.527188
0.346597
0.318801
0.363799
0.247421
0.162812
0.198939
2.50523
1.11458
2.46814
2.25125
0.915566
0.954199
3.18803
0.954481
0.827155
1.11191
1.24359
3.03086
5.04761
9.30896
3.21694
1.31751
2.59256
1.26822
0.61791
6.24949
3.63745
2.34907
3.02556
10.1809
8.38338
11.9919
16.5302
0.225132
0.263569
0.348308
0.219171
11.3359
6.74153
3.14677
2.82502
71.3433
27.3002
20.9274
41.7421
1.6214
0.451797
0.826622
2.02175
16.3111
17.4705
70.1004
40.4187
0.573181
0.46477
2.19025
1.76162
3.40297
5.5559
5.96483
2.15491
0.328602
1.99972
45.0186
0.101597
0.433284
75.5153
0.0662805
0.439357
76.4997
8.16329
105.189
10.2819
6.068
8.06288
3.5867
5.05714
0.538567
6.60879
0.796163
22.3597
0.349882
16.7948
0.590879
12.9973
2.90543
2.84913
1.33008
2.15518
0.342371
26.7594
1.08717
2.16124
1.58527
1.82118
0.271537
0.199438
0.113158
0.342372
0.0881672
2.49641
0.302029
0.958099
1.36472
17.1067
19.3374
7.53258
7.79333
28.6129
50.735
0.298646
1.27346
2.11978
1.34764
1.99739
1.44265
4.36551
1.14252
1.6189
2.09066
2.20381
1.12794
1.23664
1.46205
3.42607
360.831
21.3467
220.177
11.4635
69.8185
0.482211
0.470971
113.183
0.239927
0.328722
44.3226
96.8883
0.176083
0.363196
28.36
9.28955
107.027
14.5788
0.577457
0.391777
0.880301
0.402978
0.712407
0.374783
1.03673
0.278499
43.9547
0.294316
64.2721
0.904264
5.48714
0.750743
34.5329
0.257045
0.944606
319.125
0.720573