# vtk DataFile Version 2.0
Unstructured Grid by M++
ASCII
DATASET UNSTRUCTURED_GRID
POINTS 289 float
  0.562500   1.000000 0
  0.562500   0.625000 0
  0.625000   1.000000 0
  0.562500   0.937500 0
  0.562500   0.562500 0
  0.625000   0.937500 0
  0.562500   0.875000 0
  0.625000   0.750000 0
  0.625000   0.625000 0
  0.562500   0.812500 0
  0.562500   0.750000 0
  0.562500   0.687500 0
  0.625000   0.875000 0
  0.625000   0.812500 0
  0.625000   0.687500 0
  0.687500   0.125000 0
  0.875000   0.062500 0
  0.625000   0.125000 0
  0.625000   0.187500 0
  0.625000   0.250000 0
  0.812500   0.187500 0
  1.000000   0.125000 0
  0.687500   0.187500 0
  0.750000   0.125000 0
  0.937500   0.062500 0
  0.937500   0.125000 0
  0.750000   0.187500 0
  0.812500   0.062500 0
  0.812500   0.125000 0
  0.875000   0.687500 0
  0.187500   0.250000 0
  0.437500   0.250000 0
  0.375000   0.187500 0
  0.812500   0.625000 0
  0.125000   0.187500 0
  0.937500   0.750000 0
  0.250000   0.312500 0
  0.500000   0.312500 0
  0.625000   0.062500 0
  0.437500   0.500000 0
  0.375000   0.125000 0
  0.437500   0.187500 0
  0.437500   0.437500 0
  0.437500   0.375000 0
  0.875000   0.875000 0
  0.187500   0.375000 0
  0.687500   0.562500 0
  0.687500   0.625000 0
  0.000000   0.125000 0
  0.937500   0.625000 0
  0.250000   0.125000 0
  0.375000   0.062500 0
  0.375000   0.000000 0
  0.812500   0.500000 0
  0.125000   0.000000 0
  0.937500   0.937500 0
  0.250000   0.437500 0
  0.687500   0.875000 0
  0.687500   0.937500 0
  0.000000   0.437500 0
  0.500000   0.500000 0
  0.500000   0.437500 0
  0.750000   0.937500 0
  0.750000   1.000000 0
  0.062500   0.500000 0
  1.000000   1.000000 0
  0.312500   0.500000 0
  0.875000   0.562500 0
  0.187500   0.062500 0
  0.437500   0.125000 0
  0.437500   0.062500 0
  0.500000   0.375000 0
  0.937500   0.812500 0
  0.937500   0.875000 0
  0.250000   0.375000 0
  0.687500   0.812500 0
  0.000000   0.375000 0
  0.750000   0.562500 0
  0.062500   0.125000 0
  1.000000   0.562500 0
  1.000000   0.625000 0
  0.312500   0.125000 0
  0.562500   0.125000 0
  0.437500   0.000000 0
  0.875000   0.437500 0
  0.875000   0.500000 0
  0.187500   0.000000 0
  0.937500   0.562500 0
  0.937500   0.500000 0
  0.250000   0.062500 0
  0.687500   0.500000 0
  0.000000   0.062500 0
  0.500000   0.062500 0
  1.000000   0.875000 0
  1.000000   0.937500 0
  0.312500   0.437500 0
  0.750000   0.875000 0
  0.062500   0.437500 0
  0.812500   0.937500 0
  0.125000   0.500000 0
  0.375000   0.500000 0
  0.625000   0.562500 0
  0.625000   0.500000 0
  0.437500   0.312500 0
  0.875000   0.812500 0
  0.875000   0.750000 0
  0.187500   0.312500 0
  0.812500   0.687500 0
  0.812500   0.750000 0
  0.125000   0.250000 0
  0.375000   0.250000 0
  1.000000   0.687500 0
  0.312500   0.187500 0
  0.750000   0.687500 0
  0.750000   0.625000 0
  0.062500   0.187500 0
  0.562500   0.250000 0
  0.562500   0.187500 0
  0.375000   1.000000 0
  0.500000   0.562500 0
  0.500000   0.250000 0
  0.750000   0.250000 0
  0.500000   0.125000 0
  0.500000   0.187500 0
  1.000000   0.187500 0
  0.625000   0.375000 0
  0.875000   0.375000 0
  1.000000   0.437500 0
  0.312500   0.000000 0
  0.562500   0.000000 0
  0.812500   0.000000 0
  0.250000   0.687500 0
  0.000000   0.687500 0
  0.500000   1.000000 0
  0.250000   1.000000 0
  0.000000   1.000000 0
  0.437500   0.687500 0
  0.437500   0.625000 0
  0.187500   0.625000 0
  0.687500   0.750000 0
  0.000000   0.312500 0
  0.000000   0.250000 0
  0.375000   0.375000 0
  0.375000   0.312500 0
  0.812500   0.812500 0
  0.125000   0.312500 0
  0.875000   0.625000 0
  0.187500   0.187500 0
  0.187500   0.125000 0
  0.937500   1.000000 0
  0.250000   0.562500 0
  0.250000   0.500000 0
  0.687500   1.000000 0
  0.000000   0.500000 0
  0.687500   0.687500 0
  0.000000   0.187500 0
  0.937500   0.687500 0
  0.250000   0.250000 0
  0.250000   0.187500 0
  0.187500   0.687500 0
  0.000000   0.750000 0
  0.250000   0.750000 0
  0.125000   0.625000 0
  0.750000   0.750000 0
  0.062500   0.250000 0
  0.875000   0.937500 0
  0.187500   0.500000 0
  0.187500   0.437500 0
  0.812500   0.562500 0
  0.125000   0.125000 0
  0.125000   0.062500 0
  0.375000   0.625000 0
  0.375000   0.687500 0
  1.000000   0.750000 0
  0.312500   0.250000 0
  0.312500   0.312500 0
  0.812500   0.312500 0
  0.562500   0.312500 0
  0.375000   0.750000 0
  0.500000   0.625000 0
  0.250000   0.625000 0
  0.312500   0.687500 0
  0.750000   0.812500 0
  0.062500   0.312500 0
  0.062500   0.375000 0
  1.000000   0.812500 0
  0.312500   0.375000 0
  0.562500   0.375000 0
  0.687500   0.437500 0
  0.000000   0.000000 0
  0.500000   0.000000 0
  0.937500   0.437500 0
  0.250000   0.000000 0
  0.375000   0.437500 0
  0.812500   0.875000 0
  0.125000   0.375000 0
  0.125000   0.437500 0
  0.625000   0.437500 0
  1.000000   0.500000 0
  0.312500   0.062500 0
  0.750000   0.500000 0
  0.062500   0.000000 0
  0.062500   0.062500 0
  0.562500   0.062500 0
  0.062500   0.750000 0
  0.312500   0.750000 0
  0.312500   0.625000 0
  0.312500   0.562500 0
  0.062500   0.562500 0
  0.187500   1.000000 0
  0.437500   0.562500 0
  0.875000   1.000000 0
  0.187500   0.562500 0
  0.500000   0.937500 0
  0.250000   0.937500 0
  0.312500   1.000000 0
  0.125000   0.750000 0
  0.125000   0.687500 0
  1.000000   0.000000 0
  0.000000   0.937500 0
  0.000000   0.875000 0
  0.875000   0.125000 0
  0.875000   0.187500 0
  0.062500   0.812500 0
  0.312500   0.812500 0
  0.000000   0.812500 0
  0.000000   0.625000 0
  0.000000   0.562500 0
  0.062500   1.000000 0
  0.062500   0.937500 0
  0.937500   0.187500 0
  0.937500   0.250000 0
  0.062500   0.687500 0
  0.062500   0.625000 0
  0.125000   1.000000 0
  1.000000   0.250000 0
  1.000000   0.312500 0
  0.062500   0.875000 0
  0.125000   0.812500 0
  0.375000   0.812500 0
  0.125000   0.875000 0
  0.375000   0.937500 0
  0.375000   0.875000 0
  0.187500   0.750000 0
  0.187500   0.812500 0
  0.437500   0.812500 0
  0.187500   0.875000 0
  0.437500   0.875000 0
  0.375000   0.562500 0
  0.812500   1.000000 0
  0.125000   0.562500 0
  0.437500   1.000000 0
  0.437500   0.937500 0
  0.187500   0.937500 0
  0.125000   0.937500 0
  0.500000   0.687500 0
  0.500000   0.750000 0
  0.500000   0.812500 0
  0.250000   0.812500 0
  0.250000   0.875000 0
  0.500000   0.875000 0
  0.437500   0.750000 0
  0.312500   0.875000 0
  0.312500   0.937500 0
  0.687500   0.250000 0
  0.687500   0.312500 0
  0.937500   0.312500 0
  0.875000   0.250000 0
  0.625000   0.000000 0
  0.875000   0.000000 0
  0.687500   0.375000 0
  0.937500   0.375000 0
  0.875000   0.312500 0
  0.625000   0.312500 0
  0.687500   0.000000 0
  0.937500   0.000000 0
  0.750000   0.312500 0
  0.750000   0.375000 0
  1.000000   0.375000 0
  0.812500   0.250000 0
  0.562500   0.437500 0
  0.562500   0.500000 0
  0.687500   0.062500 0
  0.750000   0.437500 0
  0.750000   0.000000 0
  0.750000   0.062500 0
  1.000000   0.062500 0
  0.812500   0.375000 0
  0.812500   0.437500 0
CELLS 256 1280
4 169 170 148 68
4 151 166 56 167
4 195 45 196 167
4 54 170 201 202
4 109 34 30 147
4 40 32 81 112
4 192 89 86 68
4 48 91 78 202
4 99 64 196 97
4 71 43 37 103
4 74 186 56 95
4 109 164 34 115
4 50 81 158 112
4 122 69 92 70
4 195 145 45 106
4 110 143 174 175
4 157 30 158 147
4 40 69 32 41
4 50 158 148 147
4 141 155 164 115
4 122 123 69 41
4 142 186 143 175
4 60 39 61 42
4 40 51 69 70
4 120 31 123 41
4 157 174 36 175
4 50 148 89 68
4 48 78 155 115
4 52 83 51 70
4 151 56 66 95
4 71 61 43 42
4 169 148 34 147
4 100 193 39 42
4 40 81 51 199
4 110 174 32 112
4 109 30 145 106
4 100 66 193 95
4 169 34 78 115
4 190 92 83 70
4 50 89 81 199
4 54 86 170 68
4 74 56 45 167
4 142 143 43 103
4 153 59 64 97
4 99 196 166 167
4 169 78 170 202
4 142 193 186 95
4 192 128 89 199
4 74 45 36 106
4 110 31 143 103
4 76 184 59 97
4 142 43 193 42
4 52 51 128 199
4 189 201 91 202
4 120 37 31 103
4 74 36 186 175
4 195 196 184 97
4 141 164 140 183
4 157 158 174 112
4 109 145 164 183
4 195 184 145 183
4 110 32 31 41
4 157 36 30 106
4 76 140 184 183
4 171 172 206 181
4 178 172 261 136
4 256 261 255 136
4 256 257 261 245
4 180 150 206 207
4 60 119 39 210
4 118 215 241 263
4 178 205 172 181
4 216 243 238 244
4 162 217 233 232
4 180 206 131 181
4 179 137 119 210
4 216 204 217 232
4 220 237 219 229
4 216 217 243 159
4 259 258 262 224
4 240 254 237 229
4 153 64 227 208
4 161 205 258 224
4 240 237 238 223
4 226 227 233 208
4 234 228 254 229
4 171 248 137 210
4 160 132 204 232
4 180 131 138 159
4 133 251 213 252
4 171 206 248 207
4 162 138 217 159
4 161 258 243 244
4 220 225 237 223
4 151 150 166 212
4 260 247 257 245
4 259 262 214 263
4 151 66 150 207
4 234 254 209 253
4 162 233 250 208
4 242 241 262 263
4 171 137 172 136
4 161 243 131 159
4 160 204 225 223
4 161 131 205 181
4 179 255 137 136
4 216 238 204 223
4 100 39 248 210
4 260 213 247 252
4 226 233 132 232
4 134 214 215 263
4 180 138 150 212
4 178 261 239 245
4 259 246 258 244
4 178 239 205 224
4 240 238 246 244
4 242 262 239 224
4 99 250 64 208
4 240 246 254 253
4 242 239 247 245
4 135 219 228 229
4 99 166 250 212
4 259 214 246 253
4 118 241 251 252
4 100 248 66 207
4 134 209 214 253
4 162 250 138 212
4 242 247 241 252
4 71 187 61 280
4 102 281 197 280
4 122 92 82 203
4 17 18 82 117
4 122 82 123 117
4 19 264 273 265
4 267 279 222 20
4 125 273 270 265
4 267 272 279 176
4 19 116 18 117
4 21 25 286 24
4 23 28 26 20
4 23 285 28 27
4 218 286 275 24
4 85 53 84 288
4 235 236 231 266
4 221 222 28 20
4 267 222 231 230
4 268 38 129 203
4 125 270 197 188
4 126 287 272 176
4 277 270 276 265
4 267 231 272 266
4 125 197 187 280
4 190 129 92 203
4 277 276 287 176
4 19 18 264 22
4 17 82 38 203
4 102 197 90 188
4 126 84 287 288
4 284 130 285 27
4 121 276 264 265
4 71 37 187 177
4 120 123 116 117
4 198 88 127 191
4 221 16 25 24
4 23 26 15 22
4 121 279 276 176
4 235 231 124 230
4 125 187 273 177
4 278 271 236 266
4 277 287 283 288
4 284 285 274 282
4 278 127 271 191
4 269 275 16 24
4 200 283 53 288
4 23 15 285 282
4 121 26 279 20
4 21 124 25 230
4 19 273 116 177
4 200 90 283 188
4 126 271 84 191
4 269 16 130 27
4 17 38 15 282
4 221 25 222 230
4 121 264 26 22
4 120 116 37 177
4 60 61 281 280
4 277 283 270 188
4 126 272 271 266
4 268 274 38 282
4 85 84 88 191
4 17 15 18 22
4 221 28 16 27
4 93 94 73 55
4 85 88 67 87
4 80 49 79 87
4 44 104 73 72
4 146 33 67 168
4 211 165 149 55
4 8 47 14 154
4 105 104 108 144
4 105 108 29 107
4 7 139 13 75
4 44 165 194 98
4 200 53 77 168
4 8 1 101 4
4 2 5 152 58
4 260 6 213 3
4 105 35 104 72
4 96 57 182 75
4 7 14 139 154
4 146 29 33 107
4 7 13 10 9
4 12 13 57 75
4 85 67 53 168
4 44 73 165 55
4 63 152 62 58
4 8 101 47 46
4 96 182 194 144
4 60 281 119 4
4 12 5 6 3
4 173 185 35 72
4 65 149 94 55
4 146 67 49 87
4 114 113 47 154
4 163 108 182 144
4 12 6 13 9
4 173 35 111 156
4 163 182 139 75
4 260 257 6 9
4 105 29 35 156
4 163 139 113 154
4 256 10 257 9
4 146 49 29 156
4 163 113 108 107
4 80 111 49 156
4 102 101 281 4
4 12 57 5 58
4 44 194 104 144
4 96 194 62 98
4 2 0 5 3
4 93 73 185 72
4 179 119 1 4
4 200 77 90 46
4 114 33 113 107
4 7 10 14 11
4 96 62 57 58
4 133 213 0 3
4 102 90 101 46
4 256 255 10 11
4 63 62 249 98
4 114 47 77 46
4 179 1 255 11
4 211 249 165 98
4 114 77 33 168
4 198 79 88 87
4 8 14 1 11
CELL_TYPES 256
8
8
8
8
8
8
8
8
8
8
8
8
8
8
8
8
8
8
8
8
8
8
8
8
8
8
8
8
8
8
8
8
8
8
8
8
8
8
8
8
8
8
8
8
8
8
8
8
8
8
8
8
8
8
8
8
8
8
8
8
8
8
8
8
8
8
8
8
8
8
8
8
8
8
8
8
8
8
8
8
8
8
8
8
8
8
8
8
8
8
8
8
8
8
8
8
8
8
8
8
8
8
8
8
8
8
8
8
8
8
8
8
8
8
8
8
8
8
8
8
8
8
8
8
8
8
8
8
8
8
8
8
8
8
8
8
8
8
8
8
8
8
8
8
8
8
8
8
8
8
8
8
8
8
8
8
8
8
8
8
8
8
8
8
8
8
8
8
8
8
8
8
8
8
8
8
8
8
8
8
8
8
8
8
8
8
8
8
8
8
8
8
8
8
8
8
8
8
8
8
8
8
8
8
8
8
8
8
8
8
8
8
8
8
8
8
8
8
8
8
8
8
8
8
8
8
8
8
8
8
8
8
8
8
8
8
8
8
8
8
8
8
8
8
8
8
8
8
8
8
8
8
8
8
8
8
POINT_DATA 289
SCALARS scalar_value float 1
LOOKUP_TABLE default
-0.125413
-0.0567288
-0.124856
-0.12356
-0.0367872
-0.122398
-0.120568
-0.094481
-0.0587469
-0.116091
-0.103233
-0.0815563
-0.11686
-0.105468
-0.078208
-0.00101493
-0.000150828
-0.00106127
-0.00124583
-0.00169569
-0.00123323
-0.000328934
-0.00121016
-0.000942665
-0.000122759
-0.000352066
-0.00123607
-0.000290821
-0.000634288
-0.0487938
-0.00311819
-0.00818261
-0.00569675
-0.037147
-0.00115218
-0.0786545
-0.00810546
-0.0106888
-0.000831975
-0.0162394
-0.00244184
-0.00553277
-0.014393
-0.0130079
-0.162777
-0.0131005
-0.0418467
-0.0586951
-0.000474956
-0.02245
-0.00168995
-0.00160001
0
-0.0141262
0
-0.195109
-0.0168854
-0.115081
-0.123041
-0.0166047
-0.0162078
-0.014297
-0.128436
-0.133379
-0.0233795
-0.208005
-0.017768
-0.0175848
-0.000635431
-0.00242143
-0.00124969
-0.0128222
-0.128643
-0.171569
-0.0147138
-0.0991486
-0.00607073
-0.0336525
-0.000621545
-0.0161334
-0.0213598
-0.00232564
-0.00125941
0
-0.00618338
-0.0116369
0
-0.0156871
-0.0102825
-0.00109133
-0.0264625
-0.000318182
-0.000942507
-0.173264
-0.198521
-0.0159459
-0.114749
-0.0168699
-0.150731
-0.020207
-0.0170638
-0.0466934
-0.029628
-0.0111778
-0.102958
-0.076945
-0.00560707
-0.0665162
-0.081515
-0.00219557
-0.00853167
-0.0379209
-0.00433427
-0.0771165
-0.0522475
-0.00101663
-0.00354347
-0.0017766
-0.131209
-0.0223931
-0.00672186
-0.00164935
-0.00203775
-0.00399239
-0.000565669
-0.00666156
-0.00341802
-0.00621659
0
0
0
-0.0542738
-0.112204
-0.127267
-0.172318
-0.245675
-0.0716897
-0.0267112
-0.0365378
-0.0902246
-0.00289748
-0.00188291
-0.0133147
-0.0113006
-0.0928668
-0.00393547
-0.0271066
-0.00161454
-0.00112604
-0.208094
-0.0201748
-0.0187458
-0.126491
-0.0250035
-0.078099
-0.00107728
-0.0413714
-0.00459479
-0.00274298
-0.0604618
-0.176254
-0.0913318
-0.0456519
-0.0870689
-0.00193421
-0.180424
-0.0193684
-0.0177749
-0.0241581
-0.000870203
-0.000374621
-0.0247087
-0.0599642
-0.0837996
-0.00751388
-0.0108464
-0.00220465
-0.00651364
-0.0993213
-0.0374559
-0.0290353
-0.0528862
-0.0944832
-0.00299102
-0.00693263
-0.139175
-0.0139877
-0.0113
-0.00805344
0
0
-0.00659945
0
-0.015048
-0.122756
-0.0104007
-0.0175677
-0.0136257
-0.00920161
-0.001816
-0.0195638
0
-0.000285004
-0.000887653
-0.164593
-0.0926876
-0.0252376
-0.0197567
-0.032222
-0.226902
-0.0191272
-0.195091
-0.0207311
-0.125446
-0.156529
-0.136002
-0.109472
-0.0755399
0
-0.242409
-0.237578
-0.000426827
-0.000975497
-0.225132
-0.120577
-0.229154
-0.0554768
-0.0334073
-0.246004
-0.241457
-0.000609515
-0.000983533
-0.10365
-0.0527057
-0.247144
-0.00084072
-0.00162244
-0.235587
-0.175109
-0.121669
-0.213753
-0.129844
-0.127706
-0.0938797
-0.129088
-0.121687
-0.179966
-0.125744
-0.0192704
-0.164878
-0.024066
-0.129212
-0.127863
-0.197827
-0.230511
-0.0837552
-0.110144
-0.120137
-0.119304
-0.145291
-0.123126
-0.106754
-0.130241
-0.133428
-0.00151126
-0.00258139
-0.001893
-0.00139841
0
0
-0.00456263
-0.00335166
-0.0021068
-0.00377022
0
0
-0.0022906
-0.00372079
-0.0033984
-0.00157565
-0.0148944
-0.0230565
-0.000692364
-0.00670154
0
-0.000439078
-0.000123359
-0.00347467
-0.00607693
