# vtk DataFile Version 2.0
Unstructured Grid by M++
ASCII
DATASET UNSTRUCTURED_GRID
POINTS 16641 float
  0.703125   0.781250 0
  0.632812   0.828125 0
  0.640625   0.835938 0
  0.640625   0.804688 0
  0.648438   0.812500 0
  0.625000   0.820312 0
  0.789062   0.929688 0
  0.796875   0.937500 0
  0.664062   0.945312 0
  0.664062   0.953125 0
  0.664062   0.968750 0
  0.671875   0.960938 0
  0.679688   0.960938 0
  0.679688   0.968750 0
  0.671875   0.953125 0
  0.914062   0.945312 0
  0.914062   0.968750 0
  0.914062   0.960938 0
  0.921875   0.968750 0
  0.929688   0.960938 0
  0.921875   0.945312 0
  0.921875   0.953125 0
  0.929688   0.953125 0
  0.820312   0.898438 0
  0.750000   0.945312 0
  0.570312   0.898438 0
  0.578125   0.898438 0
  0.585938   0.898438 0
  0.523438   0.953125 0
  0.585938   0.890625 0
  0.585938   0.882812 0
  0.515625   0.945312 0
  0.523438   0.945312 0
  0.515625   0.937500 0
  0.570312   0.890625 0
  0.578125   0.890625 0
  0.578125   0.882812 0
  0.570312   0.882812 0
  0.507812   0.937500 0
  0.507812   0.929688 0
  0.976562   0.882812 0
  0.992188   0.898438 0
  0.984375   0.890625 0
  0.968750   0.820312 0
  0.976562   0.828125 0
  0.992188   0.812500 0
  1.000000   0.820312 0
  0.656250   0.960938 0
  0.648438   0.953125 0
  0.640625   0.945312 0
  0.882812   0.968750 0
  0.882812   0.960938 0
  0.890625   0.968750 0
  0.906250   0.960938 0
  0.898438   0.953125 0
  0.906250   0.953125 0
  0.898438   0.945312 0
  0.906250   0.945312 0
  0.882812   0.953125 0
  0.890625   0.953125 0
  0.890625   0.945312 0
  0.882812   0.945312 0
  0.539062   0.695312 0
  0.539062   0.718750 0
  0.531250   0.710938 0
  0.554688   0.710938 0
  0.546875   0.703125 0
  0.570312   0.585938 0
  0.578125   0.585938 0
  0.585938   0.578125 0
  0.585938   0.570312 0
  0.570312   0.578125 0
  0.578125   0.570312 0
  0.757812   0.835938 0
  0.929688   0.968750 0
  0.960938   0.929688 0
  0.960938   0.921875 0
  0.953125   0.914062 0
  0.953125   0.921875 0
  0.601562   0.679688 0
  0.835938   0.976562 0
  0.898438   0.718750 0
  0.835938   0.968750 0
  0.593750   0.906250 0
  0.664062   0.914062 0
  0.601562   0.914062 0
  0.609375   0.921875 0
  0.679688   0.929688 0
  0.679688   0.937500 0
  0.796875   0.968750 0
  0.726562   0.945312 0
  0.742188   0.945312 0
  0.726562   0.890625 0
  0.734375   0.898438 0
  0.742188   0.960938 0
  0.734375   0.960938 0
  0.734375   0.953125 0
  0.726562   0.953125 0
  0.523438   0.820312 0
  0.523438   0.828125 0
  0.640625   0.953125 0
  0.984375   0.664062 0
  0.632812   0.953125 0
  0.921875   0.914062 0
  0.914062   0.906250 0
  0.671875   0.929688 0
  0.671875   0.921875 0
  0.664062   0.921875 0
  0.554688   0.945312 0
  0.914062   0.937500 0
  0.718750   0.882812 0
  0.507812   0.867188 0
  0.570312   0.617188 0
  0.742188   0.968750 0
  0.726562   0.976562 0
  0.726562   0.984375 0
  0.562500   0.898438 0
  0.734375   0.984375 0
  0.734375   0.992188 0
  0.742188   0.992188 0
  0.742188   1.000000 0
  0.742188   0.937500 0
  0.734375   0.937500 0
  0.734375   0.929688 0
  0.726562   0.921875 0
  0.726562   0.929688 0
  0.679688   0.843750 0
  0.921875   0.960938 0
  0.914062   0.953125 0
  0.687500   0.851562 0
  0.562500   0.984375 0
  0.554688   0.984375 0
  0.632812   0.937500 0
  0.625000   0.929688 0
  0.554688   0.921875 0
  0.585938   0.984375 0
  0.648438   0.929688 0
  0.656250   0.937500 0
  0.578125   0.914062 0
  0.585938   0.921875 0
  0.578125   0.921875 0
  0.906250   0.929688 0
  0.898438   0.929688 0
  0.898438   0.937500 0
  0.906250   0.937500 0
  0.554688   0.679688 0
  0.554688   0.687500 0
  0.554688   0.976562 0
  0.570312   0.914062 0
  0.570312   0.906250 0
  0.562500   0.906250 0
  0.531250   0.664062 0
  0.539062   0.664062 0
  0.804688   0.976562 0
  0.890625   0.937500 0
  0.890625   0.929688 0
  0.882812   0.921875 0
  0.875000   0.921875 0
  0.882812   0.937500 0
  0.882812   0.929688 0
  0.875000   0.929688 0
  0.546875   0.679688 0
  0.539062   0.671875 0
  0.531250   0.687500 0
  0.539062   0.617188 0
  0.546875   0.671875 0
  0.554688   0.601562 0
  0.742188   0.906250 0
  0.570312   0.968750 0
  0.578125   0.976562 0
  0.585938   0.976562 0
  0.578125   0.968750 0
  0.640625   0.921875 0
  0.828125   0.968750 0
  0.539062   0.929688 0
  0.890625   0.921875 0
  0.898438   0.921875 0
  0.906250   0.921875 0
  0.945312   1.000000 0
  0.945312   0.992188 0
  0.937500   0.992188 0
  0.953125   0.992188 0
  0.953125   1.000000 0
  0.960938   0.992188 0
  0.960938   1.000000 0
  0.710938   0.992188 0
  0.710938   1.000000 0
  0.718750   1.000000 0
  0.960938   0.984375 0
  0.960938   0.976562 0
  0.539062   0.703125 0
  0.718750   0.976562 0
  0.539062   0.875000 0
  0.695312   0.859375 0
  0.703125   0.867188 0
  0.937500   0.984375 0
  0.945312   0.984375 0
  0.953125   0.984375 0
  0.953125   0.976562 0
  0.937500   0.976562 0
  0.945312   0.976562 0
  0.687500   0.976562 0
  0.695312   0.976562 0
  0.882812   0.562500 0
  0.703125   1.000000 0
  0.703125   0.992188 0
  0.703125   0.984375 0
  0.695312   0.984375 0
  0.523438   0.835938 0
  0.867188   0.546875 0
  0.687500   0.984375 0
  0.695312   1.000000 0
  0.687500   0.992188 0
  0.687500   1.000000 0
  0.585938   0.648438 0
  0.523438   0.898438 0
  0.554688   0.898438 0
  0.835938   0.914062 0
  0.539062   0.882812 0
  0.882812   0.593750 0
  0.750000   0.921875 0
  0.820312   0.937500 0
  0.820312   0.929688 0
  0.914062   0.921875 0
  0.750000   0.773438 0
  0.914062   0.929688 0
  0.632812   0.960938 0
  0.843750   0.976562 0
  0.812500   0.523438 0
  0.843750   0.984375 0
  0.523438   0.632812 0
  0.703125   0.812500 0
  0.648438   0.960938 0
  0.992188   0.671875 0
  0.640625   0.960938 0
  0.929688   0.921875 0
  0.921875   0.921875 0
  0.757812   0.781250 0
  0.921875   0.929688 0
  0.921875   0.937500 0
  0.937500   0.929688 0
  0.929688   0.929688 0
  0.765625   0.757812 0
  0.695312   0.804688 0
  0.812500   0.953125 0
  0.648438   0.898438 0
  0.656250   0.906250 0
  0.820312   1.000000 0
  0.820312   0.992188 0
  0.820312   0.960938 0
  0.906250   0.898438 0
  0.554688   0.648438 0
  0.554688   0.656250 0
  0.578125   0.945312 0
  0.882812   0.734375 0
  0.820312   0.984375 0
  0.960938   0.640625 0
  0.828125   0.937500 0
  0.898438   0.890625 0
  0.554688   0.640625 0
  0.554688   0.632812 0
  0.570312   0.937500 0
  0.562500   0.929688 0
  0.632812   0.882812 0
  0.867188   0.718750 0
  0.875000   0.726562 0
  0.804688   0.968750 0
  0.812500   0.976562 0
  0.562500   0.875000 0
  0.804688   0.945312 0
  0.812500   0.945312 0
  0.953125   0.632812 0
  0.945312   0.625000 0
  0.890625   0.882812 0
  0.882812   0.875000 0
  0.546875   0.632812 0
  0.531250   0.632812 0
  0.539062   0.632812 0
  0.539062   0.625000 0
  0.546875   0.656250 0
  0.546875   0.648438 0
  0.546875   0.640625 0
  0.539062   0.640625 0
  0.531250   0.640625 0
  0.539062   0.656250 0
  0.539062   0.648438 0
  0.531250   0.648438 0
  0.531250   0.656250 0
  0.843750   0.921875 0
  0.835938   0.921875 0
  0.843750   0.929688 0
  0.609375   0.890625 0
  0.851562   0.992188 0
  0.726562   0.835938 0
  0.585938   0.656250 0
  0.585938   0.664062 0
  0.523438   0.906250 0
  0.796875   0.960938 0
  0.789062   0.960938 0
  0.609375   0.648438 0
  0.601562   0.640625 0
  0.601562   0.648438 0
  0.593750   0.648438 0
  0.546875   0.898438 0
  0.539062   0.890625 0
  0.750000   0.914062 0
  0.539062   0.898438 0
  0.531250   0.898438 0
  0.828125   0.976562 0
  0.664062   0.828125 0
  0.726562   0.578125 0
  0.601562   0.882812 0
  0.593750   0.875000 0
  0.734375   0.585938 0
  0.890625   0.742188 0
  0.742188   0.593750 0
  0.671875   0.835938 0
  0.835938   0.984375 0
  0.828125   0.984375 0
  0.828125   0.992188 0
  0.828125   1.000000 0
  0.843750   0.992188 0
  0.835938   0.992188 0
  0.835938   1.000000 0
  0.843750   1.000000 0
  0.570312   0.742188 0
  0.562500   0.742188 0
  0.507812   1.000000 0
  0.546875   0.664062 0
  0.898438   0.804688 0
  0.554688   0.671875 0
  0.890625   0.960938 0
  0.554688   0.664062 0
  0.757812   0.960938 0
  0.507812   0.960938 0
  0.578125   0.648438 0
  0.570312   0.648438 0
  0.562500   0.648438 0
  0.515625   0.898438 0
  0.507812   0.898438 0
  0.523438   0.765625 0
  0.585938   0.515625 0
  0.875000   0.960938 0
  0.898438   0.960938 0
  0.734375   0.812500 0
  0.898438   0.968750 0
  0.750000   0.828125 0
  0.906250   0.968750 0
  0.742188   0.820312 0
  0.507812   0.992188 0
  0.851562   0.703125 0
  0.789062   0.953125 0
  0.867188   0.773438 0
  0.710938   0.593750 0
  0.812500   0.984375 0
  0.812500   0.992188 0
  0.804688   1.000000 0
  0.570312   0.960938 0
  0.562500   0.960938 0
  0.562500   0.953125 0
  0.554688   0.953125 0
  0.640625   0.890625 0
  0.617188   0.742188 0
  0.796875   1.000000 0
  0.796875   0.992188 0
  0.789062   0.992188 0
  0.609375   0.742188 0
  0.687500   0.570312 0
  0.789062   0.984375 0
  0.601562   0.734375 0
  0.593750   0.726562 0
  0.601562   0.726562 0
  0.539062   0.976562 0
  0.867188   0.804688 0
  0.750000   0.953125 0
  0.757812   0.953125 0
  0.570312   0.703125 0
  0.562500   0.695312 0
  0.570312   0.695312 0
  0.687500   0.945312 0
  0.695312   0.945312 0
  0.773438   0.945312 0
  0.781250   0.945312 0
  0.695312   0.921875 0
  0.703125   0.921875 0
  0.585938   0.640625 0
  0.593750   0.640625 0
  0.585938   0.632812 0
  0.593750   0.632812 0
  0.523438   0.890625 0
  0.531250   0.890625 0
  0.523438   0.882812 0
  0.531250   0.882812 0
  0.781250   0.953125 0
  0.765625   0.960938 0
  0.578125   0.703125 0
  0.578125   0.710938 0
  0.585938   0.710938 0
  0.585938   0.718750 0
  0.851562   0.789062 0
  0.710938   0.960938 0
  0.710938   0.968750 0
  0.718750   0.968750 0
  0.562500   0.734375 0
  0.570312   0.734375 0
  0.570312   0.726562 0
  0.562500   0.718750 0
  0.843750   0.695312 0
  0.507812   0.984375 0
  0.578125   0.734375 0
  0.578125   0.742188 0
  0.585938   0.742188 0
[...]
POINT_DATA 16641
SCALARS scalar_value float 1
LOOKUP_TABLE default
-0.0830451
-0.0849326
-0.0886584
-0.0801842
-0.0830881
-0.0819887
-0.318559
-0.35027
-0.164354
-0.17189
-0.188019
-0.183634
-0.188161
-0.195707
-0.175613
-1.05466
-1.14221
-1.11169
-1.16683
-1.15418
-1.07945
-1.10608
-1.1265
-0.305666
-0.272516
-0.0920795
-0.0947195
-0.0974643
-0.113532
-0.0949843
-0.0925348
-0.103683
-0.106465
-0.0968049
-0.0894819
-0.092095
-0.0895891
-0.0869494
-0.0947257
-0.0889263
-0.936578
-1.06954
-1.00357
-0.271205
-0.347392
-0.22909
-0.297914
-0.17658
-0.164437
-0.151119
-0.977725
-0.952177
-1.03524
-1.08078
-1.0174
-1.05267
-0.998793
-1.02909
-0.935239
-0.984104
-0.968407
-0.918554
-0.0718381
-0.0721375
-0.0716404
-0.0727374
-0.0723808
-0.0722097
-0.0724773
-0.0725298
-0.0722536
-0.0721077
-0.0720584
-0.1256
-1.1842
-1.12239
-1.10643
-1.0714
-1.09166
-0.0732267
-0.549455
-0.098095
-0.533491
-0.103587
-0.128964
-0.111018
-0.118078
-0.154174
-0.163186
-0.383263
-0.225165
-0.25847
-0.150096
-0.166678
-0.275013
-0.260885
-0.252407
-0.235509
-0.0716474
-0.0718138
-0.161253
-0.0979714
-0.1587
-0.998521
-0.95716
-0.150158
-0.141428
-0.136471
-0.121545
-1.03232
-0.138244
-0.071826
-0.0724399
-0.279292
-0.258577
-0.264335
-0.0893123
-0.276827
-0.280984
-0.290102
-0.292368
-0.24646
-0.229281
-0.214175
-0.188578
-0.201291
-0.0999485
-1.13508
-1.08296
-0.103889
-0.239588
-0.234148
-0.137784
-0.127609
-0.0973334
-0.237395
-0.137554
-0.150236
-0.100701
-0.10884
-0.105505
-0.9961
-0.970059
-0.984244
-1.01102
-0.0725001
-0.0725573
-0.194756
-0.0978882
-0.0947049
-0.091786
-0.0704629
-0.0711605
-0.4082
-0.951538
-0.934771
-0.859324
-0.784445
-0.901641
-0.884356
-0.811814
-0.0720769
-0.0713703
-0.0711364
-0.0701779
-0.0719668
-0.0715891
-0.186162
-0.180074
-0.209493
-0.208581
-0.184276
-0.12639
-0.492405
-0.0984636
-0.914311
-0.950493
-0.977039
-1.25453
-1.24596
-1.24732
-1.2445
-1.25227
-1.24321
-1.25111
-0.241286
-0.244588
-0.258488
-1.23362
-1.22153
-0.0719867
-0.245376
-0.0765555
-0.110075
-0.119164
-1.23166
-1.23321
-1.23397
-1.22054
-1.21404
-1.21833
-0.205675
-0.210914
-0.0758978
-0.233026
-0.228526
-0.223232
-0.215547
-0.0719868
-0.0616522
-0.210002
-0.22259
-0.213851
-0.216554
-0.0730191
-0.0776407
-0.0865726
-0.417335
-0.0779145
-0.0848424
-0.229897
-0.417277
-0.398442
-0.997715
-0.088241
-1.01546
-0.170525
-0.599122
-0.0272357
-0.638983
-0.0690584
-0.0945189
-0.174088
-0.0980334
-0.171884
-1.03495
-1.01619
-0.0913726
-1.03545
-1.05413
-1.07609
-1.05472
-0.0881132
-0.0889195
-0.416742
-0.115262
-0.120572
-0.512116
-0.496476
-0.450056
-0.89785
-0.0719604
-0.0721481
-0.134986
-0.0980624
-0.480799
-0.0973593
-0.44466
-0.811611
-0.0718396
-0.071734
-0.118811
-0.107161
-0.105401
-0.0963018
-0.0972836
-0.404017
-0.434321
-0.0827241
-0.384993
-0.40724
-0.0968531
-0.0961629
-0.692049
-0.557111
-0.0711442
-0.0695679
-0.0702878
-0.0702036
-0.0716105
-0.0713937
-0.0712475
-0.0704565
-0.069702
-0.0708401
-0.0706267
-0.0699388
-0.0701999
-0.491384
-0.442313
-0.507202
-0.102619
-0.746814
-0.114622
-0.0730259
-0.0730363
-0.0798268
-0.378976
-0.358553
-0.0731911
-0.0731353
-0.0731408
-0.0730807
-0.083956
-0.0794616
-0.21317
-0.0814682
-0.079366
-0.507244
-0.0919866
-0.0591557
-0.0969075
-0.0925209
-0.0618547
-0.0989166
-0.0644765
-0.0963691
-0.571655
-0.525761
-0.544354
-0.561817
-0.677605
-0.602312
-0.628712
-0.703481
-0.0733587
-0.07314
-0.212268
-0.0718312
-0.152431
-0.0724248
-1.00455
-0.0723031
-0.299064
-0.117134
-0.0729262
-0.0727569
-0.0724435
-0.0764433
-0.0753867
-0.0713483
-0.0552938
-0.881657
-1.04374
-0.103392
-1.07636
-0.116704
-1.11254
-0.109726
-0.178937
-0.0933593
-0.353497
-0.102931
-0.0668022
-0.444195
-0.457264
-0.432535
-0.161112
-0.154757
-0.1392
-0.131756
-0.110229
-0.0741591
-0.401656
-0.395131
-0.373319
-0.0740806
-0.0631319
-0.369514
-0.0738048
-0.0735639
-0.0736382
-0.171542
-0.127355
-0.280437
-0.292383
-0.0730225
-0.0728277
-0.0729721
-0.177269
-0.183291
-0.312081
-0.328458
-0.154446
-0.160209
-0.0730011
-0.0730744
-0.0729722
-0.0730643
-0.0762567
-0.0776527
-0.0750935
-0.076297
-0.336876
-0.312914
-0.0731442
-0.0732009
-0.0733023
-0.0733766
-0.107089
-0.217091
-0.223965
-0.238638
-0.0730841
-0.0732642
-0.0731875
-0.0729935
-0.0918313
-0.154579
-0.0734441
-0.0735661
-0.0737427
-0.194299
-0.0951324
-0.241803
-0.278202
-0.0739005
-0.0732577
-0.0732814
-0.088893
-0.113185
-0.616465
-0.558545
-0.221055
-0.200347
-0.211073
-0.0730474
-0.0743809
-0.183257
-0.224945
-0.285175
-0.457502
-0.502224
-0.487684
-0.0830525
-0.0903159
-1.07466
-0.093483
-1.05549
-0.168258
-0.0273849
-0.716145
-0.842902
-1.14702
-1.13346
-1.11277
-1.09779
-0.0935648
-0.105805
-0.0732564
-0.0733204
-0.0732692
-0.073291
-1.15807
-1.14029
-0.100744
-1.12684
-1.10904
-0.0973879
-0.0707426
-0.0714015
-0.0712615
-0.0524554
-0.0711215
-0.0706057
-0.191304
-0.0705256
-0.043049
-1.17549
-1.19147
-0.118661
-1.20718
-0.0967082
-0.144927
-0.0735571
-0.0736594
-0.0731266
-1.07605
-0.0953982
-1.10148
-1.11841
-0.0994473
-0.0732421
-1.09416
-0.169799
-1.25841
-0.149808
-0.08013
-1.20529
-0.0713308
-0.110417
-1.18602
-1.16669
-0.104369
-1.15641
-1.14252
-1.20061
-1.17875
-0.0705056
-1.16904
-1.19442
-0.207331
-0.199739
-0.192106
-0.200827
-0.0733666
-0.0734852
-0.0734243
-0.0731694
-0.0731805
-0.0732279
-0.0732116
-0.0783989
-0.0800211
-0.08745
-0.0818626
-0.0842376
-0.0868769
-0.0805201
-0.0822624
-0.0844525
-0.17457
-0.191834
-0.0962502
-0.0776259
-0.129511
-0.346195
-0.0976735
-0.256268
-0.0970897
-0.237414
-0.333497
-0.48166
-0.440971
-0.083519
-0.153597
-0.11726
-0.144221
-0.13071
-0.0735855
-0.0734878
-0.073421
-0.0733719
-0.0735184
-0.0734592
-0.311178
-0.0542212
-0.0567207
-0.423055
-0.457727
-0.0870621
-0.0653981
-0.0642181
-0.413686
-0.385953
-0.0741264
-0.0749634
-0.0753325
-0.13948
-0.045652
-0.12679
-0.0729543
-0.0720822
-0.0714196
-0.0748053
-0.0743886
-0.336216
-0.376324
-0.370917
-0.130034
-0.0929
-0.142957
-0.138662
-0.149224
-0.09477
-0.325958
-0.0868958
-0.474296
-0.0711963
-0.0702496
-0.069759
-0.0683436
-0.711989
-0.637013
-0.5752
-0.098704
-0.0983834
-0.0670886
-0.0673091
-0.0695118
-0.0714913
-0.837595
-0.877106
-1.01097
-0.966197
-0.0991766
-0.0781894
-0.0798617
-0.309947
-0.427543
-0.0709049
-0.0498588
-0.543394
-0.577931
-0.0822707
-0.516987
-0.145379
-0.0707128
-0.0708057
-0.0702536
-0.0702107
-0.0644403
-0.198737
-0.061129
-0.0562748
-0.185644
-0.0568027
-0.0566928
-0.0644047
-0.0613405
-0.0609963
-0.230415
-0.0642442
-0.657333
-0.668074
-0.680931
-0.77725
-0.863771
-0.748136
-0.765766
-0.848917
-0.833291
-0.0737184
-0.0739701
-0.0737964
-0.170229
-0.190394
-1.17751
-1.17757
-0.0759857
-1.18806
-1.18777
-1.19892
-1.1983
-1.1951
-0.0757298
-1.18188
-0.109769
-1.18534
-1.18716
-1.17629
-0.104207
-1.16834
-1.17328
-0.0735482
-0.0736903
-1.23608
-1.23624
-1.24286
-1.24707
-1.2412
-1.24979
-0.215607
-0.0516207
-0.16291
-0.0483338
-0.079067
-0.394827
-0.363686
-0.0781455
-1.23208
-0.0724485
-0.127896
-1.22134
-1.22053
-1.20878
-1.20824
-0.0828816
-0.215903
-0.269882
-0.24257
-1.22025
-1.22879
-1.22835
-1.20965
-0.0802544
-0.158959
-0.0817295
-0.074025
-0.0743222
-1.16111
-1.13537
-1.15321
-0.0738621
-0.0746866
-0.100163
-0.103856
-0.10736
-1.10455
-0.168181
-0.0755499
-0.263593
-0.0921975
-0.277557
-0.288703
-0.0712953
-0.149179
-0.145774
-0.774821
-0.0715029
-0.0778772
-0.109829
-0.179328
-0.180879
-0.179782
-0.200852
-0.0724975
-0.12819
-0.0216078
-0.0751303
-0.0749227
-0.0186581
-0.0913808
-0.0606584
-0.024367
-0.0263195
-0.026154
-0.0712451
-0.065344
-0.0669518
-0.0997311
-0.0719493
-0.0456931
-0.0557841
-0.0521331
-0.0622141
-0.0579959
-0.0640224
-0.103317
-0.0725879
-0.0537267
-0.0261866
-0.167804
-0.0740189
-0.0220826
-0.081519
-0.0598894
-0.080484
-0.0636121
-0.0288363
-0.0764578
-0.0723071
-0.0252915
-0.0193484
-0.0724285
-0.0542854
-0.0571282
-0.0571673
-0.0513457
-0.0567523
-0.106787
-0.0733375
-0.106808
-0.0728231
-0.0309806
-0.0543838
-0.0543164
-0.0497912
-0.0792079
-0.072352
-0.0340206
-0.0585203
-0.0633074
-0.0502113
-0.0415063
-0.0464024
-0.0637877
-0.0158694
-0.0903165
-0.0604965
-0.0452187
-0.0563289
-0.0511781
-0.0570622
-0.0544621
-0.0572709
-0.0599354
-0.123609
-0.0732363
-0.0213442
-0.00717557
-0.0986668
-0.071505
-0.071889
-0.099587
-0.0714341
-0.0510897
-0.101802
-0.0718207
-0.102793
-0.0717418
-0.0524571
-0.0885546
-0.0604169
-0.0889345
-0.0424865
-0.0343292
-0.0963224
-0.0712466
-0.0497711
-0.0942413
-0.0708805
-0.0056464
-0.0657471
-0.0930286
-0.0710579
-0.048532
-0.0661162
-0.0514358
-0.056844
-0.0722864
-0.067603
-0.139332
-0.0736291
-0.0734731
-0.0666182
-0.0726551
-0.0584994
-0.139022
-0.0734126
-0.0258862
-0.0256459
-0.0142077
-0.0262789
-0.0495551
-0.0329825
-0.0485863
-0.0908563
-0.0730831
-0.0248416
-0.0191298
-0.0247208
-0.0191586
-0.0189025
-0.0512664
-0.0950866
-0.0731589
-0.0286239
-0.0523141
-0.0964946
-0.0731516
-0.0244455
-0.0496182
-0.0921159
-0.0730824
-0.096953
-0.0616711
-0.0738789
-0.0126119
-0.0475504
-0.0563684
-0.066267
-0.0714353
-0.0920117
-0.0714958
-0.0957806
-0.0716901
-0.0353932
-0.0534429
-0.0986835
-0.0732837
-0.0433049
-0.0552092
-0.102195
-0.0733112
-0.0376747
-0.0540778
-0.0448668
-0.02055
-0.0384157
-0.0813409
-0.0725239
-0.0706156
-0.100901
-0.0726624
-0.0527725
-0.105942
-0.0728277
-0.0541642
-0.10691
-0.0729594
-0.056326
-0.104637
-0.0734503
-0.0728506
-0.101296
-0.0728628
-0.0267964
-0.0532219
-0.0407369
-0.0226038
-0.0417924
-0.0278892
-0.0547649
-0.0385723
-0.0536249
-0.0480941
-0.0983156
-0.0733672
-0.0216622
-0.0727439
-0.100453
-0.0161068
-0.030274
-0.0531129
-0.0388058
-0.0549863
-0.0249626
-0.0193881
-0.0587006
-0.0533032
-0.0567669
-0.0575625
-0.106169
-0.0734208
-0.021892
-0.0575744
-0.108711
-0.0734805
-0.0189542
-0.0582388
-0.114928
-0.0735325
-0.066375
-0.0583899
-0.0672465
-0.118623
-0.07352
-0.0220024
-0.072827
-0.0633304
-0.0624601
-0.0948294
-0.0727684
-0.0638031
-0.0729546
-0.0637326
-0.064159
-0.0992527
-0.0728923
-0.0970543
-0.0729293
-0.0730249
-0.0191382
-0.132616
-0.0736442
-0.0870325
-0.0710909
-0.0167191
-0.089298
-0.071308
-0.0746412
-0.0611943
-0.0646389
-0.0590206
-0.0662636
-0.0325585
-0.0257724
-0.0260912
-0.0367542
-0.0398574
-0.0355016
-0.0272157
-0.0499232
-0.0459934
-0.0573108
-0.0959949
-0.0624828
-0.105984
-0.0713352
-0.054644
-0.0672597
-0.0676272
-0.0947169
-0.0624977
-0.0913738
-0.0706642
-0.00468192
-0.0471205
-0.0901836
-0.0708391
-0.0673248
-0.068261
-0.101201
-0.0668009
-0.103229
-0.0519731
-0.0569534
-0.0495646
-0.0628365
-0.0945096
-0.0637617
-0.0929734
-0.0176561
-0.0194195
-0.065314
-0.0584296
-0.0657205
-0.0197247
-0.0581259
-0.113415
-0.0737923
-0.0630506
-0.0583028
-0.115146
-0.0737134
-0.0592723
-0.0578168
-0.0583142
-0.0575153
-0.109163
-0.0736626
-0.0550445
-0.0568273
-0.0731573
-0.0730924
-0.103086
-0.0729988
-0.0619101
-0.0135774
-0.0137752
-0.0449514
-0.0987872
-0.0647242
-0.00180309
-0.0998691
-0.0657026
-0.0491443
-0.00236507
-0.0498052
-0.0941811
-0.0621805
-0.0923429
-0.0621867
-0.00369523
-0.0135372
-0.095949
-0.0637006
-0.0946984
-0.0982757
-0.0637459
-0.0987572
-0.0971116
-0.0636717
-0.0965548
-0.0219213
-0.0266406
-0.100476
-0.0454818
-0.0971222
-0.0646243
-0.00130837
-0.0963255
-0.0652823
-0.0412672
-0.0670891
-0.0974156
-0.0724053
-0.0939439
-0.0721471
-0.05132
-0.0655664
-0.0404985
-0.0586632
-0.0723611
-0.0608091
-0.0725166
-0.0728478
-0.082255
-0.0831486
-0.0725077
-0.0356375
-0.0615415
-0.0961148
-0.0614298
-0.0613381
-0.0721827
-0.057928
-0.044233
-0.0309124
-0.026088
-0.0255982
-0.0312697
-0.0210556
-0.0587212
-0.0201007
-0.0203495
-0.0653321
-0.0590954
0
-0.0208065
-0.0225477
-0.0224959
-0.0251325
-0.0733742
-0.035966
-0.0499405
-0.0901088
-0.0719462
-0.0878606
-0.0626776
-0.00185608
-0.0894549
-0.0626361
-0.0630836
-0.0024875
-0.0393022
-0.0734508
-0.0736207
-0.124823
-0.0162372
-0.00303984
-0.0425101
-0.0450909
-0.0972041
-0.0681686
-0.0320203
-0.0546393
-0.0665562
-0.069546
-0.0921076
-0.0666264
-0.0957072
-0.0931887
-0.0210497
-0.0525728
-0.0983853
-0.0723648
-0.0297813
-0.024416
-0.0737385
-0.0634033
-0.0727407
-0.0738302
-0.0638283
-0.0713651
-0.0735724
-0.0625412
-0.0619245
-0.0738943
-0.106166
-0.0950145
-0.0642553
-0.0539836
-0.061116
-0.0519388
-0.0855809
-0.0836955
-0.0827086
-0.0731968
-0.062362
-0.0632042
-0.0698924
-0.0736752
-0.0633804
-0.108816
-0.0739933
-0.111834
-0.0572585
-0.111705
-0.0738915
-0.0641771
-0.0760064
-0.0741882
-0.064938
-0.0740832
-0.0692645
-0.0586154
-0.0726862
-0.0977991
-0.0641283
-0.0964695
-0.0641408
-0.0672965
-0.0957551
-0.0676424
-0.0549864
-0.0721858
-0.0700409
-0.0581018
-0.0683788
-0.0571737
-0.0724236
-0.0694642
-0.0565154
-0.0947026
-0.0510907
-0.0868661
-0.0930358
-0.0905085
-0.0891753
-0.0628036
-0.0595105
-0.052484
-0.0628835
-0.0545905
-0.0564018
-0.06445
-0.0567797
-0.0969974
-0.0625539
-0.0629075
-0.0615636
-0.0551363
-0.0732848
-0.0895303
-0.0734737
-0.0911478
-0.0626414
-0.0580724
-0.125684
-0.073327
-0.069998
-0.0725802
-0.0627558
-0.072454
-0.0849005
-0.0632639
-0.0665031
-0.0857702
-0.0637767
-0.0715152
-0.0634945
-0.0482368
-0.0641884
-0.0682023
-0.0678419
-0.0615389
-0.0451555
-0.0619728
-0.0716868
-0.0591317
-0.0711224
-0.0399239
-0.0676088
-0.0444034
-0.0726556
-0.0729775
-0.0860507
-0.0477638
-0.066439
-0.0495132
-0.0718464
-0.0509611
-0.0646114
-0.0740802
-0.108995
-0.0692629
-0.0569681
-0.0643315
-0.0585025
-0.0587775
-0.0724811
-0.0592842
-0.0603881
-0.144225
-0.0736432
-0.0735999
-0.0699039
-0.0731676
-0.0593972
-0.073347
-0.0605065
-0.0738017
-0.0704351
-0.064428
-0.143244
-0.0737381
-0.0776018
-0.0593447
-0.158457
-0.0739282
-0.0808926
-0.0596895
-0.0934502
-0.0611511
-0.08705
-0.0607457
-0.0856279
-0.0605109
-0.0898228
-0.0609217
-0.0608262
-0.0900841
-0.0606536
-0.068306
-0.0701859
-0.0827312
-0.0895455
-0.0640185
-0.0880531
-0.0911791
-0.0640064
-0.0893494
-0.0928241
-0.0639253
-0.0910643
-0.0909808
-0.0750943
-0.0591014
-0.0748405
-0.0820925
-0.061019
-0.0832188
-0.0608586
-0.0826566
-0.0857618
-0.0611086
-0.0849388
-0.0847051
-0.0612462
-0.088188
-0.06127
-0.0868938
-0.0869324
-0.0614521
-0.0816675
-0.0717887
-0.0131443
-0.0892161
-0.0615768
-0.131353
-0.0738839
-0.0825769
-0.0602128
-0.0841532
-0.060478
-0.0806421
-0.0605307
-0.0804529
-0.0785145
-0.0601983
-0.0778224
-0.0798002
-0.0606977
-0.0606044
-0.0660122
-0.059997
-0.0768239
-0.0665142
-0.0252252
-0.0671774
-0.067522
-0.0753671
-0.0666863
-0.0744367
-0.0693272
-0.0860626
-0.060191
-0.198449
-0.0748473
-0.0226691
-0.0201522
-0.0747934
-0.0670816
-0.0834915
-0.0599586
-0.176593
-0.0742639
-0.0778622
-0.025231
-0.0403001
-0.0974679
-0.0653149
-0.0743389
-0.0676349
-0.0659161
-0.0688056
-0.109084
-0.0393981
-0.0740528
-0.0696993
-0.0656922
-0.0693237
-0.0365002
-0.0741306
-0.0359596
-0.0660941
-0.0391298
-0.0664697
-0.0976869
-0.0633054
-0.0384707
-0.0974649
-0.0624457
-0.0967569
-0.0622938
-0.0741805
-0.0664754
-0.0738432
-0.0740929
-0.0745971
-0.0743886
-0.065943
-0.0753017
-0.0746271
-0.0980342
-0.0626919
-0.0740095
-0.0661297
-0.0737463
-0.0645247
-0.0874695
-0.0966598
-0.0632294
-0.0357836
-0.0117497
-0.0254693
-0.0658869
-0.0437229
-0.0132209
-0.0666295
-0.0429845
-0.0986075
-0.0634739
-0.03868
-0.0123861
-0.0256025
-0.0423297
-0.0286825
-0.0744108
-0.0708874
-0.066079
-0.0708464
-0.0469615
-0.0991441
-0.0639453
-0.0706707
-0.0418838
-0.0986661
-0.0631908
-0.0704821
-0.0703162
-0.0789087
-0.0668512
-0.153871
-0.0601736
-0.043769
-0.080114
-0.0591958
-0.577093
-0.137457
-0.0576475
-0.0422852
-0.0529771
-0.0709561
-0.0515985
-0.0585521
-0.0707012
-0.0618685
-0.0708338
-0.0723062
-0.0768341
-0.0559083
-0.0218032
-0.0669091
-0.100857
-0.338139
-0.0540251
-0.0186532
-0.0272933
-0.0665904
-0.0720179
-0.0907156
-0.0714114
-0.0747657
-0.046512
-0.0663748
-0.0711477
-0.306046
-0.0955699
-0.0471919
-0.0753831
-0.0504735
-0.0666811
-0.0482614
-0.0513994
-0.0140598
-0.0556389
-0.0710517
-0.0520767
-0.0491352
-0.071636
-0.0731657
-0.0633048
-0.104853
-0.073355
-0.0668439
-0.0731719
-0.0733627
-0.0917825
-0.0651484
-0.0680824
-0.0488216
-0.0728225
-0.0938204
-0.0731648
-0.0372855
-0.0982617
-0.0627335
-0.0703607
-0.0458601
-0.0732323
-0.0383375
-0.0738771
-0.0696371
-0.0253187
-0.0655235
-0.0506655
-0.0729309
-0.0976639
-0.0732209
-0.0708322
-0.061405
-0.06695
-0.135709
-0.0734116
-0.0693064
-0.0586821
-0.0710574
-0.0974134
-0.0519614
-0.0679086
-0.0590311
-0.0485565
-0.0761343
-0.0629334
-0.0753966
-0.0677309
-0.0671057
-0.0920233
-0.0731341
-0.0448575
-0.0739613
-0.0705583
-0.0657399
-0.0727653
-0.0531979
-0.0730921
-0.0630144
-0.100854
-0.073328
-0.0917558
-0.064486
-0.0765187
-0.0499447
-0.0987817
-0.069057
-0.0900747
-0.0644834
-0.0255301
-0.0532358
-0.0730479
-0.0780391
-0.0710366
-0.0508263
-0.0732694
-0.0734276
-0.100921
-0.0479713
-0.0911284
-0.0609384
-0.0554102
-0.0524371
-0.0593477
-0.0835305
-0.375868
-0.107147
-0.0512704
-0.0746462
-0.0536686
-0.0431598
-0.0803826
-0.0886875
-0.0607506
-0.0699037
-0.0667075
-0.0764522
-0.0534596
-0.0544578
-0.0957091
-0.0622357
-0.096056
-0.062893
-0.0810009
-0.0602724
-0.0695447
-0.0841542
-0.0726599
-0.0429326
-0.0618195
-0.0629194
-0.0539425
-0.0947567
-0.0653505
-0.0388235
-0.0793087
-0.0577356
-0.0931607
-0.0654086
-0.0370898
-0.0381352
-0.0774316
-0.0980702
-0.0809707
-0.071265
-0.0383747
-0.0585319
-0.063019
-0.133221
-0.0740935
-0.0360473
-0.0470866
-0.0927172
-0.072202
-0.0968236
-0.0359654
-0.0629213
-0.0673569
-0.0955976
-0.0647031
-0.000945593
-0.0500824
-0.0962584
-0.0724685
-0.0208713
-0.060349
-0.167531
-0.0875475
-0.0604085
-0.0745473
-0.0678174
-0.0741699
-0.088956
-0.0611575
-0.0577605
-0.0683507
-0.0485203
-0.0486705
-0.133859
-0.0624866
-0.061028
-0.0600681
-0.0603421
-0.0845196
-0.0601649
-0.0617032
-0.0318794
-0.0982333
-0.062627
-0.055611
-0.0586523
-0.0556142
-0.0542361
-0.044119
-0.121262
-0.0977117
-0.0627373
-0.0535864
-0.0699775
-0.105949
-0.0622163
-0.0699874
-0.105293
-0.079461
-0.0711471
-0.0548939
-0.0567066
-0.0623283
-0.0595635
-0.0293317
-0.0628896
-0.0546696
-0.0457666
-0.094068
-0.0648675
-0.000693982
-0.0454885
-0.0653895
-0.163881
-0.074127
-0.0597212
-0.069676
-0.0512461
-0.0645834
-0.067272
-0.0688449
-0.0772174
-0.0635794
-0.0975598
-0.0618731
-0.0760177
-0.0675329
-0.0752294
-0.094551
-0.0405438
-0.0417648
-0.0393929
-0.0425328
-0.0497674
-0.0640988
-0.0593886
-0.0736288
-0.0673889
-0.0753721
-0.0679421
-0.0595228
-0.15691
-0.0739189
-0.0694669
-0.0605278
-0.113864
-0.0566185
-0.0710966
-0.0612019
-0.0732997
-0.0736376
-0.0740977
-0.0781529
-0.0567036
-0.0649598
-0.150188
-0.0737251
-0.059441
-0.0576569
-0.114156
-0.0582746
-0.0562899
-0.0561103
-0.0719561
-0.0636181
-0.0570965
-0.066283
-0.0583366
-0.0656989
-0.058606
-0.0912117
-0.06254
-0.0652014
-0.0928827
-0.0625052
-0.0660832
-0.0756427
-0.0659632
-0.0718332
-0.0745279
-0.07299
-0.0973174
-0.0732981
-0.0886422
-0.0645528
-0.0608624
-0.0577763
-0.0676746
-0.0565709
-0.0566627
-0.0718295
-0.11036
-0.0588606
-0.0752337
-0.211174
-0.0761482
-0.0649986
-0.0585682
-0.0698059
-0.0873626
-0.0805756
-0.0726952
-0.0741767
-0.124045
-0.0967956
-0.0720373
-0.0761867
-0.102916
-0.0793037
-0.0639219
-0.0774603
-0.0779894
-0.0632757
-0.0618324
-0.0760924
-0.0620594
-0.119651
-0.138047
-0.0740122
-0.0675415
-0.059629
-0.0631205
-0.073347
-0.0734874
-0.0634571
-0.0660886
-0.0491343
-0.055415
-0.098278
-0.0720012
-0.0668118
-0.0836871
-0.0728424
-0.100904
-0.0723091
-0.0597747
-0.0719828
-0.0713416
-0.0522348
-0.0729741
-0.0664649
-0.0695055
-0.089976
-0.0728698
-0.0664198
-0.0693886
-0.0879914
-0.0727753
-0.0629587
-0.0329033
-0.0501126
-0.0330994
-0.0695569
-0.0303887
-0.0652092
-0.047823
-0.0305925
-0.0667973
-0.0630443
-0.045828
-0.0306192
-0.0859786
-0.0625704
-0.0723362
-0.0629864
-0.083701
-0.0623783
-0.0720871
-0.0726947
-0.0998602
-0.044437
-0.0287235
-0.0611652
-0.0273447
-0.0583199
-0.0570766
-0.0662318
-0.028607
-0.0625642
-0.066736
-0.0691774
-0.0804079
-0.0725332
-0.0666284
-0.0573727
-0.0324983
-0.068629
-0.0604617
-0.0701566
-0.0669428
-0.0800206
-0.0598795
-0.0742076
-0.133602
-0.0634827
-0.0779581
-0.0595586
-0.060757
-0.125097
-0.0639753
-0.073096
-0.0958174
-0.0617559
-0.0849358
-0.0721926
-0.047648
-0.0634311
-0.0618193
-0.0940981