# vtk DataFile Version 2.0
Unstructured Grid by M++
ASCII
DATASET UNSTRUCTURED_GRID
POINTS 16641 float
  0.703125   0.781250 0
  0.632812   0.828125 0
  0.640625   0.835938 0
  0.640625   0.804688 0
  0.648438   0.812500 0
  0.625000   0.820312 0
  0.789062   0.929688 0
  0.796875   0.937500 0
  0.664062   0.945312 0
  0.664062   0.953125 0
  0.664062   0.968750 0
  0.671875   0.960938 0
  0.679688   0.960938 0
  0.679688   0.968750 0
  0.671875   0.953125 0
  0.914062   0.945312 0
  0.914062   0.968750 0
  0.914062   0.960938 0
  0.921875   0.968750 0
  0.929688   0.960938 0
  0.921875   0.945312 0
  0.921875   0.953125 0
  0.929688   0.953125 0
  0.820312   0.898438 0
  0.750000   0.945312 0
  0.570312   0.898438 0
  0.578125   0.898438 0
  0.585938   0.898438 0
  0.523438   0.953125 0
  0.585938   0.890625 0
  0.585938   0.882812 0
  0.515625   0.945312 0
  0.523438   0.945312 0
  0.515625   0.937500 0
  0.570312   0.890625 0
  0.578125   0.890625 0
  0.578125   0.882812 0
  0.570312   0.882812 0
  0.507812   0.937500 0
  0.507812   0.929688 0
  0.976562   0.882812 0
  0.992188   0.898438 0
  0.984375   0.890625 0
  0.968750   0.820312 0
  0.976562   0.828125 0
  0.992188   0.812500 0
  1.000000   0.820312 0
  0.656250   0.960938 0
  0.648438   0.953125 0
  0.640625   0.945312 0
  0.882812   0.968750 0
  0.882812   0.960938 0
  0.890625   0.968750 0
  0.906250   0.960938 0
  0.898438   0.953125 0
  0.906250   0.953125 0
  0.898438   0.945312 0
  0.906250   0.945312 0
  0.882812   0.953125 0
  0.890625   0.953125 0
  0.890625   0.945312 0
  0.882812   0.945312 0
  0.539062   0.695312 0
  0.539062   0.718750 0
  0.531250   0.710938 0
  0.554688   0.710938 0
  0.546875   0.703125 0
  0.570312   0.585938 0
  0.578125   0.585938 0
  0.585938   0.578125 0
  0.585938   0.570312 0
  0.570312   0.578125 0
  0.578125   0.570312 0
  0.757812   0.835938 0
  0.929688   0.968750 0
  0.960938   0.929688 0
  0.960938   0.921875 0
  0.953125   0.914062 0
  0.953125   0.921875 0
  0.601562   0.679688 0
  0.835938   0.976562 0
  0.898438   0.718750 0
  0.835938   0.968750 0
  0.593750   0.906250 0
  0.664062   0.914062 0
  0.601562   0.914062 0
  0.609375   0.921875 0
  0.679688   0.929688 0
  0.679688   0.937500 0
  0.796875   0.968750 0
  0.726562   0.945312 0
  0.742188   0.945312 0
  0.726562   0.890625 0
  0.734375   0.898438 0
  0.742188   0.960938 0
  0.734375   0.960938 0
  0.734375   0.953125 0
  0.726562   0.953125 0
  0.523438   0.820312 0
  0.523438   0.828125 0
  0.640625   0.953125 0
  0.984375   0.664062 0
  0.632812   0.953125 0
  0.921875   0.914062 0
  0.914062   0.906250 0
  0.671875   0.929688 0
  0.671875   0.921875 0
  0.664062   0.921875 0
  0.554688   0.945312 0
  0.914062   0.937500 0
  0.718750   0.882812 0
  0.507812   0.867188 0
  0.570312   0.617188 0
  0.742188   0.968750 0
  0.726562   0.976562 0
  0.726562   0.984375 0
  0.562500   0.898438 0
  0.734375   0.984375 0
  0.734375   0.992188 0
  0.742188   0.992188 0
  0.742188   1.000000 0
  0.742188   0.937500 0
  0.734375   0.937500 0
  0.734375   0.929688 0
  0.726562   0.921875 0
  0.726562   0.929688 0
  0.679688   0.843750 0
  0.921875   0.960938 0
  0.914062   0.953125 0
  0.687500   0.851562 0
  0.562500   0.984375 0
  0.554688   0.984375 0
  0.632812   0.937500 0
  0.625000   0.929688 0
  0.554688   0.921875 0
  0.585938   0.984375 0
  0.648438   0.929688 0
  0.656250   0.937500 0
  0.578125   0.914062 0
  0.585938   0.921875 0
  0.578125   0.921875 0
  0.906250   0.929688 0
  0.898438   0.929688 0
  0.898438   0.937500 0
  0.906250   0.937500 0
  0.554688   0.679688 0
  0.554688   0.687500 0
  0.554688   0.976562 0
  0.570312   0.914062 0
  0.570312   0.906250 0
  0.562500   0.906250 0
  0.531250   0.664062 0
  0.539062   0.664062 0
  0.804688   0.976562 0
  0.890625   0.937500 0
  0.890625   0.929688 0
  0.882812   0.921875 0
  0.875000   0.921875 0
  0.882812   0.937500 0
  0.882812   0.929688 0
  0.875000   0.929688 0
  0.546875   0.679688 0
  0.539062   0.671875 0
  0.531250   0.687500 0
  0.539062   0.617188 0
  0.546875   0.671875 0
  0.554688   0.601562 0
  0.742188   0.906250 0
  0.570312   0.968750 0
  0.578125   0.976562 0
  0.585938   0.976562 0
  0.578125   0.968750 0
  0.640625   0.921875 0
  0.828125   0.968750 0
  0.539062   0.929688 0
  0.890625   0.921875 0
  0.898438   0.921875 0
  0.906250   0.921875 0
  0.945312   1.000000 0
  0.945312   0.992188 0
  0.937500   0.992188 0
  0.953125   0.992188 0
  0.953125   1.000000 0
  0.960938   0.992188 0
  0.960938   1.000000 0
  0.710938   0.992188 0
  0.710938   1.000000 0
  0.718750   1.000000 0
  0.960938   0.984375 0
  0.960938   0.976562 0
  0.539062   0.703125 0
  0.718750   0.976562 0
  0.539062   0.875000 0
  0.695312   0.859375 0
  0.703125   0.867188 0
  0.937500   0.984375 0
  0.945312   0.984375 0
  0.953125   0.984375 0
  0.953125   0.976562 0
  0.937500   0.976562 0
  0.945312   0.976562 0
  0.687500   0.976562 0
  0.695312   0.976562 0
  0.882812   0.562500 0
  0.703125   1.000000 0
  0.703125   0.992188 0
  0.703125   0.984375 0
  0.695312   0.984375 0
  0.523438   0.835938 0
  0.867188   0.546875 0
  0.687500   0.984375 0
  0.695312   1.000000 0
  0.687500   0.992188 0
  0.687500   1.000000 0
  0.585938   0.648438 0
  0.523438   0.898438 0
  0.554688   0.898438 0
  0.835938   0.914062 0
  0.539062   0.882812 0
  0.882812   0.593750 0
  0.750000   0.921875 0
  0.820312   0.937500 0
  0.820312   0.929688 0
  0.914062   0.921875 0
  0.750000   0.773438 0
  0.914062   0.929688 0
  0.632812   0.960938 0
  0.843750   0.976562 0
  0.812500   0.523438 0
  0.843750   0.984375 0
  0.523438   0.632812 0
  0.703125   0.812500 0
  0.648438   0.960938 0
  0.992188   0.671875 0
  0.640625   0.960938 0
  0.929688   0.921875 0
  0.921875   0.921875 0
  0.757812   0.781250 0
  0.921875   0.929688 0
  0.921875   0.937500 0
  0.937500   0.929688 0
  0.929688   0.929688 0
  0.765625   0.757812 0
  0.695312   0.804688 0
  0.812500   0.953125 0
  0.648438   0.898438 0
  0.656250   0.906250 0
  0.820312   1.000000 0
  0.820312   0.992188 0
  0.820312   0.960938 0
  0.906250   0.898438 0
  0.554688   0.648438 0
  0.554688   0.656250 0
  0.578125   0.945312 0
  0.882812   0.734375 0
  0.820312   0.984375 0
  0.960938   0.640625 0
  0.828125   0.937500 0
  0.898438   0.890625 0
  0.554688   0.640625 0
  0.554688   0.632812 0
  0.570312   0.937500 0
  0.562500   0.929688 0
  0.632812   0.882812 0
  0.867188   0.718750 0
  0.875000   0.726562 0
  0.804688   0.968750 0
  0.812500   0.976562 0
  0.562500   0.875000 0
  0.804688   0.945312 0
  0.812500   0.945312 0
  0.953125   0.632812 0
  0.945312   0.625000 0
  0.890625   0.882812 0
  0.882812   0.875000 0
  0.546875   0.632812 0
  0.531250   0.632812 0
  0.539062   0.632812 0
  0.539062   0.625000 0
  0.546875   0.656250 0
  0.546875   0.648438 0
  0.546875   0.640625 0
  0.539062   0.640625 0
  0.531250   0.640625 0
  0.539062   0.656250 0
  0.539062   0.648438 0
  0.531250   0.648438 0
  0.531250   0.656250 0
  0.843750   0.921875 0
  0.835938   0.921875 0
  0.843750   0.929688 0
  0.609375   0.890625 0
  0.851562   0.992188 0
  0.726562   0.835938 0
  0.585938   0.656250 0
  0.585938   0.664062 0
  0.523438   0.906250 0
  0.796875   0.960938 0
  0.789062   0.960938 0
  0.609375   0.648438 0
  0.601562   0.640625 0
  0.601562   0.648438 0
  0.593750   0.648438 0
  0.546875   0.898438 0
  0.539062   0.890625 0
  0.750000   0.914062 0
  0.539062   0.898438 0
  0.531250   0.898438 0
  0.828125   0.976562 0
  0.664062   0.828125 0
  0.726562   0.578125 0
  0.601562   0.882812 0
  0.593750   0.875000 0
  0.734375   0.585938 0
  0.890625   0.742188 0
  0.742188   0.593750 0
  0.671875   0.835938 0
  0.835938   0.984375 0
  0.828125   0.984375 0
  0.828125   0.992188 0
  0.828125   1.000000 0
  0.843750   0.992188 0
  0.835938   0.992188 0
  0.835938   1.000000 0
  0.843750   1.000000 0
  0.570312   0.742188 0
  0.562500   0.742188 0
  0.507812   1.000000 0
  0.546875   0.664062 0
  0.898438   0.804688 0
  0.554688   0.671875 0
  0.890625   0.960938 0
  0.554688   0.664062 0
  0.757812   0.960938 0
  0.507812   0.960938 0
  0.578125   0.648438 0
  0.570312   0.648438 0
  0.562500   0.648438 0
  0.515625   0.898438 0
  0.507812   0.898438 0
  0.523438   0.765625 0
  0.585938   0.515625 0
  0.875000   0.960938 0
  0.898438   0.960938 0
  0.734375   0.812500 0
  0.898438   0.968750 0
  0.750000   0.828125 0
  0.906250   0.968750 0
  0.742188   0.820312 0
  0.507812   0.992188 0
  0.851562   0.703125 0
  0.789062   0.953125 0
  0.867188   0.773438 0
  0.710938   0.593750 0
  0.812500   0.984375 0
  0.812500   0.992188 0
  0.804688   1.000000 0
  0.570312   0.960938 0
  0.562500   0.960938 0
  0.562500   0.953125 0
  0.554688   0.953125 0
  0.640625   0.890625 0
  0.617188   0.742188 0
  0.796875   1.000000 0
  0.796875   0.992188 0
  0.789062   0.992188 0
  0.609375   0.742188 0
  0.687500   0.570312 0
  0.789062   0.984375 0
  0.601562   0.734375 0
  0.593750   0.726562 0
  0.601562   0.726562 0
  0.539062   0.976562 0
  0.867188   0.804688 0
  0.750000   0.953125 0
  0.757812   0.953125 0
  0.570312   0.703125 0
  0.562500   0.695312 0
  0.570312   0.695312 0
  0.687500   0.945312 0
  0.695312   0.945312 0
  0.773438   0.945312 0
  0.781250   0.945312 0
  0.695312   0.921875 0
  0.703125   0.921875 0
  0.585938   0.640625 0
  0.593750   0.640625 0
  0.585938   0.632812 0
  0.593750   0.632812 0
  0.523438   0.890625 0
  0.531250   0.890625 0
  0.523438   0.882812 0
  0.531250   0.882812 0
  0.781250   0.953125 0
  0.765625   0.960938 0
  0.578125   0.703125 0
  0.578125   0.710938 0
  0.585938   0.710938 0
  0.585938   0.718750 0
  0.851562   0.789062 0
  0.710938   0.960938 0
  0.710938   0.968750 0
  0.718750   0.968750 0
  0.562500   0.734375 0
  0.570312   0.734375 0
  0.570312   0.726562 0
  0.562500   0.718750 0
  0.843750   0.695312 0
  0.507812   0.984375 0
  0.578125   0.734375 0
  0.578125   0.742188 0
  0.585938   0.742188 0
[...]
POINT_DATA 16641
SCALARS scalar_value float 1
LOOKUP_TABLE default
-0.940509
-1.30746
-1.38496
-1.08488
-1.19328
-1.21105
-2.09869
-2.10841
-1.61626
-1.62146
-1.63542
-1.63984
-1.65352
-1.66374
-1.63225
-2.12555
-2.14048
-2.13542
-2.14525
-2.14344
-2.12684
-2.13331
-2.1369
-2.0702
-2.04598
-1.54609
-1.54682
-1.54791
-1.56347
-1.54075
-1.53193
-1.56181
-1.5623
-1.56012
-1.53894
-1.53951
-1.53085
-1.52972
-1.55931
-1.55676
-1.81297
-1.86048
-1.83224
-1.53238
-1.54791
-1.41075
-1.46018
-1.61667
-1.60122
-1.58767
-2.13149
-2.12818
-2.13279
-2.13282
-2.12744
-2.12872
-2.12323
-2.12444
-2.12488
-2.12622
-2.1222
-2.12096
-0.429618
-0.514293
-0.486433
-0.465111
-0.446981
-0.28824
-0.293151
-0.285307
-0.274984
-0.277206
-0.271332
-1.57178
-2.15091
-2.09583
-2.06035
-2.02857
-2.07129
-0.41229
-2.13429
-0.875945
-2.1292
-1.55459
-1.59894
-1.55919
-1.56349
-1.62452
-1.62972
-2.14392
-1.8822
-2.00164
-1.73216
-1.80248
-2.04792
-2.0032
-1.96603
-1.90512
-1.0354
-1.11512
-1.59058
-0.247034
-1.58255
-2.07452
-2.05775
-1.61626
-1.61215
-1.60374
-1.56309
-2.11745
-1.67409
-1.42826
-0.348844
-2.07338
-2.00754
-2.03162
-1.54598
-2.08698
-2.11173
-2.15362
-2.1991
-1.98585
-1.9246
-1.90691
-1.80929
-1.83684
-1.45393
-2.13897
-2.13045
-1.49831
-1.5661
-1.56577
-1.57788
-1.57014
-1.55768
-1.56881
-1.59018
-1.60303
-1.55615
-1.56032
-1.55957
-2.1101
-2.11119
-2.11796
-2.11811
-0.404221
-0.412065
-1.56563
-1.55557
-1.5517
-1.55124
-0.374717
-0.378307
-2.15102
-2.11741
-2.1114
-2.10126
-2.09963
-2.11672
-2.11085
-2.10918
-0.401882
-0.388295
-0.413925
-0.32981
-0.392588
-0.309978
-1.89383
-1.56616
-1.56725
-1.56844
-1.56683
-1.57788
-2.12955
-1.55929
-2.10262
-2.10257
-2.1003
-2.19941
-2.19111
-2.18108
-2.20704
-2.2198
-2.2347
-2.25428
-1.91259
-1.94209
-2.01597
-2.21753
-2.19884
-0.452692
-1.93738
-1.50118
-1.54079
-1.58248
-2.17502
-2.1834
-2.1958
-2.18321
-2.16625
-2.17353
-1.70021
-1.73918
-0.171814
-1.85445
-1.83535
-1.81483
-1.75745
-1.19903
-0.166496
-1.71352
-1.78842
-1.72877
-1.74119
-0.39402
-1.54149
-1.54578
-2.09114
-1.52026
-0.181111
-2.00155
-2.11133
-2.10596
-2.09719
-1.0174
-2.108
-1.58421
-2.13352
-0.162647
-2.13844
-0.33769
-1.19768
-1.60454
-0.267773
-1.59309
-2.0894
-2.09354
-1.12471
-2.10556
-2.11621
-2.10189
-2.10301
-0.990444
-1.1206
-2.12073
-1.56528
-1.5823
-2.17278
-2.16138
-2.12515
-2.03393
-0.374129
-0.381273
-1.5644
-1.12802
-2.15097
-0.210373
-2.11114
-2.01633
-0.366959
-0.359917
-1.56263
-1.56053
-1.5359
-0.978096
-1.06823
-2.13832
-2.14488
-1.51447
-2.11581
-2.11584
-0.201964
-0.195053
-2.0003
-1.98494
-0.35526
-0.34482
-0.350237
-0.341393
-0.375793
-0.369033
-0.361937
-0.357372
-0.352101
-0.3716
-0.365074
-0.360371
-0.367554
-2.09813
-2.09883
-2.10448
-1.54329
-2.14313
-1.42407
-0.398954
-0.402532
-1.54863
-2.13077
-2.1324
-0.398387
-0.39337
-0.397536
-0.396022
-1.5452
-1.53455
-1.98527
-1.54437
-1.54324
-2.13616
-1.34109
-0.23182
-1.53368
-1.52132
-0.238882
-1.16047
-0.245714
-1.40417
-2.14056
-2.14468
-2.15435
-2.16364
-2.14509
-2.14874
-2.15674
-2.15252
-0.547367
-0.563283
-1.56518
-0.383125
-1.71481
-0.396544
-2.12935
-0.388612
-2.10408
-1.56366
-0.390741
-0.385937
-0.379977
-1.53908
-1.53629
-0.675004
-0.231404
-2.12715
-2.13085
-1.26985
-2.13465
-1.47065
-2.1371
-1.37298
-1.56512
-0.767984
-2.1207
-1.55425
-0.270462
-2.15755
-2.17152
-2.20225
-1.56562
-1.56516
-1.56447
-1.56415
-1.54941
-0.502084
-2.22224
-2.19873
-2.21163
-0.508065
-0.255124
-2.18702
-0.486881
-0.473758
-0.467951
-1.56523
-1.77532
-2.06105
-2.08819
-0.437479
-0.42478
-0.424343
-1.65181
-1.67692
-2.1008
-2.10783
-1.64581
-1.66854
-0.389001
-0.391418
-0.383175
-0.386568
-1.52925
-1.53257
-1.51217
-1.51617
-2.11729
-2.11686
-0.434554
-0.449633
-0.446016
-0.461736
-1.67473
-1.79807
-1.82574
-1.9024
-0.534759
-0.521906
-0.497339
-0.480595
-0.671762
-1.565
-0.512162
-0.536536
-0.528059
-1.56519
-0.868292
-1.56524
-1.5653
-0.482278
-0.401955
-0.405265
-1.5511
-1.66592
-2.12569
-2.12549
-1.83439
-1.75765
-1.81173
-0.907138
-0.533914
-1.5654
-1.56556
-1.56584
-2.11597
-2.12082
-2.1162
-1.40994
-1.11012
-2.0787
-1.23439
-2.08544
-1.61126
-0.161906
-2.12973
-2.13381
-2.13611
-2.13264
-2.1184
-2.11642
-0.294769
-1.56118
-0.423018
-0.422866
-0.416781
-0.397746
-2.13903
-2.12199
-1.44851
-2.12059
-2.09931
-1.33973
-1.18019
-1.18762
-1.09857
-0.164511
-1.02099
-1.08883
-1.64886
-1.0125
-0.163237
-2.15253
-2.1652
-1.68185
-2.18129
-0.324856
-1.56483
-0.436243
-0.446429
-0.388806
-2.11562
-1.25512
-2.12875
-2.13059
-1.36523
-0.398395
-2.10113
-1.87894
-2.18611
-1.77322
-0.215367
-2.17004
-0.433014
-1.59918
-2.15819
-2.14747
-1.49075
-2.14361
-2.14022
-2.16219
-2.15223
-0.414149
-2.14781
-2.15671
-1.74062
-1.72599
-1.68962
-1.68559
-0.422507
-0.427955
-0.421799
-0.390218
-0.394695
-0.394796
-0.390504
-1.50589
-1.52384
-0.184544
-1.53602
-1.53726
-1.53839
-1.51058
-1.52634
-1.52829
-1.56518
-1.56527
-0.65437
-1.35213
-1.70263
-1.56567
-0.824461
-1.56548
-0.743325
-1.56536
-1.56551
-2.12475
-2.12027
-1.47528
-1.56507
-1.56373
-1.56492
-1.56445
-0.450221
-0.438356
-0.429369
-0.430661
-0.453389
-0.456842
-1.56539
-0.220135
-0.225627
-2.12659
-2.13075
-1.27441
-0.268293
-0.262089
-2.16722
-2.15971
-1.1741
-0.630287
-0.704001
-1.56478
-0.206433
-1.56432
-1.06831
-0.971643
-0.900036
-0.621165
-0.572472
-2.10237
-2.10573
-2.11006
-1.5645
-0.500649
-1.56487
-1.56477
-1.56498
-0.569736
-2.23292
-1.41971
-2.11081
-0.261137
-0.255323
-0.253857
-0.249755
-2.13749
-2.12963
-2.12939
-0.94959
-0.920996
-0.246688
-0.246836
-0.2527
-0.263764
-2.14244
-2.147
-2.14227
-2.1461
-0.988404
-0.995793
-1.10123
-2.17903
-2.10565
-0.651687
-0.229124
-2.12116
-2.11097
-0.975742
-2.11058
-1.62019
-0.704181
-0.675098
-0.673988
-0.70498
-0.241636
-1.57384
-0.23693
-0.232842
-1.571
-0.233949
-0.234684
-0.241801
-0.23779
-0.238242
-1.57061
-0.241726
-2.11196
-2.11759
-2.12228
-2.12288
-2.12364
-2.11354
-2.11872
-2.11986
-2.11557
-0.463414
-0.478137
-0.459363
-1.67894
-1.73904
-2.14995
-2.15023
-0.91543
-2.17927
-2.1765
-2.21044
-2.20502
-2.17475
-1.27186
-2.15827
-1.64868
-2.16493
-2.1715
-2.14773
-1.56193
-2.14178
-2.14464
-0.426655
-0.432756
-2.44858
-2.42851
-2.52896
-2.36812
-2.28027
-2.31038
-1.56526
-0.216101
-1.56509
-0.211295
-1.48547
-2.12155
-2.11507
-0.99395
-2.24854
-0.473834
-1.7683
-2.21897
-2.24404
-2.2102
-2.19587
-1.55307
-2.0053
-2.05314
-2.03321
-2.27392
-2.33113
-2.36881
-2.25722
-1.42349
-1.56509
-1.39419
-0.472867
-0.496721
-2.11642
-2.0875
-2.12
-0.43796
-0.465101
-1.55353
-1.55726
-1.55836
-1.90563
-1.64351
-0.497276
-2.0537
-1.55486
-2.07417
-2.08141
-0.70285
-1.63082
-1.63907
-2.14945
-0.459119
-0.660687
-1.56108
-1.74902
-1.69404
-1.71831
-1.79375
-0.502931
-1.62811
-0.172942
-0.689314
-0.678026
-0.171499
-0.215094
-0.405667
-0.168692
-0.246106
-0.168683
-0.825242
-0.242269
-0.964275
-1.40169
-0.911327
-0.164371
-0.241767
-0.171439
-0.166489
-0.245218
-0.176971
-1.43049
-0.892116
-0.238466
-0.165589
-1.73356
-0.858963
-0.181602
-0.211498
-0.339203
-0.398633
-0.435308
-0.241908
-0.826993
-0.606395
-0.164708
-0.135729
-0.693727
-0.165196
-0.24279
-0.174479
-0.165487
-0.242744
-1.53273
-0.800089
-1.40246
-0.849923
-0.164647
-0.238947
-0.236352
-0.235148
-0.880817
-0.611269
-0.240376
-0.239585
-0.2464
-0.239761
-0.232355
-0.233769
-0.319932
-0.159999
-0.182373
-0.31997
-0.163644
-0.240739
-0.164165
-0.241812
-0.165323
-0.242172
-0.165248
-1.50788
-0.828341
-0.131912
-0.11881
-1.38457
-0.920066
-0.927721
-1.42842
-0.933724
-0.237567
-1.49589
-0.93961
-1.54251
-0.948979
-0.237735
-0.206911
-0.369046
-0.258134
-0.163512
-0.163041
-1.31974
-0.910116
-0.237439
-1.2522
-0.895659
-0.118958
-0.243204
-1.21405
-0.87157
-0.237414
-0.303237
-0.23492
-0.23615
-0.649896
-0.317129
-1.7139
-0.923893
-0.905535
-0.325432
-0.957981
-0.247736
-1.66876
-0.854462
-0.246029
-0.245972
-0.165129
-0.163139
-0.241519
-0.167619
-0.240842
-1.27409
-0.746903
-0.246685
-0.200797
-0.246454
-0.202019
-0.199836
-0.240696
-1.3424
-0.761149
-0.162514
-0.240421
-1.33326
-0.765113
-0.162078
-0.240425
-1.26432
-0.750518
-0.442829
-0.828279
-0.926357
-0.1645
-0.163686
-0.241239
-0.245391
-0.866677
-1.17756
-0.845217
-1.29591
-0.879991
-0.164243
-0.241799
-1.4526
-0.777149
-0.164736
-0.242024
-1.49381
-0.788641
-0.163822
-0.241424
-0.16954
-0.161267
-0.240162
-0.974694
-0.648494
-0.59693
-1.27908
-0.818055
-0.238994
-1.35237
-0.827267
-0.239076
-1.34819
-0.820541
-0.245184
-1.52557
-0.798629
-0.79622
-1.24006
-0.784072
-0.162028
-0.23936
-0.241321
-0.162426
-0.242064
-0.166369
-0.244537
-0.16728
-0.243592
-0.181398
-1.47808
-0.780618
-0.145293
-0.7721
-1.27397
-0.124468
-0.162454
-0.240242
-0.163006
-0.240572
-0.246839
-0.199245
-0.263896
-0.169913
-0.244701
-0.191259
-1.53526
-0.800805
-0.147506
-0.247278
-1.55466
-0.80558
-0.198292
-0.252807
-1.58318
-0.811013
-0.174697
-0.253837
-0.202603
-1.59544
-0.812981
-0.151588
-0.722206
-0.244165
-0.242441
-1.14584
-0.755696
-0.245935
-0.750091
-0.249014
-0.248275
-1.22009
-0.771757
-1.2044
-0.760221
-0.771902
-0.161139
-1.63453
-0.822262
-0.947808
-0.746656
-0.161089
-1.06466
-0.802037
-0.292361
-0.290799
-0.338781
-0.254042
-0.745002
-0.196796
-0.247172
-0.247202
-0.194549
-0.195021
-0.188769
-0.248513
-0.215491
-0.212969
-0.239047
-0.869465
-0.925779
-1.66167
-0.97259
-0.238013
-0.700485
-0.755494
-0.77069
-0.90608
-1.12715
-0.852999
-0.119137
-0.237504
-1.07632
-0.828601
-0.970749
-0.976587
-1.48241
-0.973515
-1.60676
-0.237765
-0.235003
-0.249473
-0.92036
-0.965265
-0.925095
-1.07062
-0.16182
-0.16286
-0.187499
-0.259161
-0.284596
-0.204158
-0.253977
-1.56209
-0.810679
-0.191713
-0.25642
-1.57296
-0.811686
-0.183606
-0.251
-0.187291
-0.250319
-1.54951
-0.806912
-0.179192
-0.247321
-0.808383
-0.791051
-1.2884
-0.78148
-0.895
-0.161518
-0.16293
-0.236783
-1.33818
-0.965874
-0.111217
-1.40402
-0.970511
-0.237031
-0.110612
-0.237279
-0.668156
-0.889125
-0.581378
-0.856903
-0.119293
-0.160639
-1.09692
-0.940922
-1.19546
-1.24798
-0.963704
-1.4118
-1.18925
-0.95379
-1.31491
-0.164197
-0.166353
-1.53439
-0.236441
-1.27228
-0.956882
-0.111553
-1.2612
-0.952258
-0.235791
-1.10657
-1.26059
-0.831239
-1.19598
-0.82045
-0.238427
-0.248075
-0.247285
-0.239696
-0.615855
-0.240875
-0.655988
-0.695126
-1.1225
-0.97934
-0.664148
-0.247349
-0.744419
-0.297212
-0.684184
-0.684559
-0.577304
-0.239368
-0.232237
-0.212624
-0.212748
-0.248002
-0.215924
-0.205204
-0.263178
-0.203195
-0.205825
-0.305063
-0.279186
0
-0.202193
-0.204413
-0.200713
-0.246948
-0.813846
-0.238357
-0.238528
-1.0695
-0.778684
-0.468191
-0.726758
-0.119762
-0.52125
-0.787669
-0.766339
-0.119646
-0.238159
-0.821726
-0.815999
-1.60715
-0.16047
-0.119453
-0.237908
-0.23769
-1.38207
-0.950967
-0.165912
-0.238851
-0.913899
-0.888354
-1.12439
-0.936823
-1.31567
-1.16815
-0.161804
-0.238381
-1.31462
-0.858842
-0.163688
-0.16248
-0.366065
-0.256555
-0.981533
-0.359671
-0.257635
-0.976551
-0.356486
-0.254514
-0.253347
-0.804018
-1.55077
-1.08106
-0.934658
-0.249952
-0.248828
-0.249714
-1.41805
-1.35362
-1.3468
-0.333594
-0.253859
-0.255924
-0.980384
-0.34001
-0.256897
-1.55121
-0.809295
-1.55736
-0.249913
-1.55439
-0.809847
-0.260572
-0.984466
-0.365561
-0.263115
-0.813075
-0.291431
-0.250901
-0.333665
-1.26816
-0.960562
-1.19108
-0.949691
-0.944669
-1.28438
-0.285018
-0.250205
-0.330204
-0.299757
-0.250868
-0.287798
-0.25053
-0.332972
-0.298653
-0.250508
-1.51014
-0.244389
-1.45658
-1.50883
-1.48841
-1.48638
-0.93667
-0.240662
-0.249728
-0.254374
-0.249972
-0.250272
-0.258668
-0.250295
-0.968587
-0.940117
-0.949498
-0.245004
-0.250003
-0.751261
-1.4644
-0.774586
-1.46683
-0.165664
-0.244799
-1.57606
-0.82107
-0.181241
-0.911608
-0.241927
-0.679395
-0.995832
-0.242141
-0.989552
-1.00648
-0.242279
-0.712452
-0.240981
-0.238649
-0.242415
-1.35775
-1.27625
-0.239831
-0.241106
-0.243428
-0.312135
-0.238835
-0.300644
-0.249237
-1.25196
-0.249322
-0.692906
-0.725517
-1.21208
-0.249481
-0.273917
-0.249691
-0.321901
-0.249697
-0.24257
-0.808616
-1.54588
-0.93501
-0.251056
-0.307653
-0.247823
-0.251478
-0.324976
-0.251578
-0.252102
-1.71144
-0.840927
-0.831305
-0.960274
-0.350777
-0.251839
-0.362513
-0.252606
-0.846193
-0.96916
-0.402679
-1.69294
-0.836056
-0.176754
-0.272554
-1.74775
-0.853723
-0.183841
-0.290321
-0.336194
-0.684475
-0.296517
-0.510268
-0.273519
-0.451307
-0.318896
-0.592319
-0.523486
-0.25193
-0.453804
-0.607769
-0.591729
-0.668143
-0.661029
-0.820218
-0.715123
-0.755952
-0.866243
-0.827028
-0.856127
-0.897557
-0.940068
-1.02281
-0.172132
-0.259643
-0.1898
-0.333206
-0.457795
-0.328631
-0.473675
-0.401807
-0.352914
-0.552522
-0.43352
-0.359718
-0.544099
-0.377816
-0.636355
-0.469171
-0.386405
-0.622942
-0.838415
-0.609044
-0.125069
-0.415074
-0.70249
-1.61068
-0.819086
-0.260637
-0.40497
-0.281894
-0.445761
-0.303608
-0.405203
-0.370037
-0.277034
-0.35133
-0.341785
-0.306838
-0.388087
-0.452243
-0.448188
-0.294371
-0.410928
-0.319721
-0.242799
-0.344067
-0.405652
-0.937498
-0.299177
-0.424812
-0.293885
-0.198646
-0.337173
-1.92378
-0.918569
-0.169514
-0.174977
-0.392738
-0.275041
-0.191707
-0.3126
-1.82801
-0.881288
-0.510384
-0.199925
-0.23459
-0.99177
-0.63154
-0.406602
-0.27519
-0.598855
-0.28705
-0.995002
-0.232498
-0.426004
-0.302534
-0.663483
-0.303828
-0.233642
-0.44666
-0.233967
-0.697343
-0.234898
-0.7328
-1.1656
-0.95726
-0.235125
-0.948945
-0.942095
-0.866096
-0.928913
-0.397198
-0.268163
-0.413821
-0.868993
-0.897573
-0.379611
-0.267399
-0.450114
-0.433728
-1.0018
-0.952239
-0.398718
-0.266356
-0.39341
-0.260072
-0.988479
-1.09251
-0.945654
-0.234124
-0.166235
-0.247108
-0.710152
-0.235975
-0.169379
-0.77325
-0.235945
-1.21274
-0.965799
-0.235062
-0.167851
-0.247169
-0.235941
-0.198992
-0.448231
-0.351408
-0.804353
-0.415626
-0.235615
-1.03629
-0.962991
-0.365236
-0.234257
-0.996105
-0.958503
-0.528936
-0.451337
-0.610626
-0.658923
-1.02191
-0.240213
-0.201393
-0.892904
-0.239813
-2.07729
-1.0129
-0.239091
-0.197015
-0.237856
-0.480511
-0.236761
-0.237346
-0.663203
-0.238539
-0.718932
-0.606711
-0.834427
-0.238621
-0.174501
-1.03466
-1.00954
-2.09855
-0.238188
-0.173631
-0.248623
-0.979021
-0.533679
-1.00125
-0.422777
-0.53599
-0.236676
-0.845495
-0.380511
-2.03127
-0.995416
-0.236826
-0.597631
-0.237481
-0.901305
-0.236922
-0.237512
-0.170946
-0.237672
-0.550162
-0.237774
-0.23701
-0.470904
-0.374302
-0.278357
-1.52436
-0.797141
-0.763841
-0.753516
-0.764729
-1.43291
-0.634724
-1.19374
-0.249779
-0.318222
-1.34499
-0.757488
-0.233148
-0.962643
-0.951442
-0.327425
-0.235749
-0.767667
-0.232729
-0.424547
-0.300652
-0.247033
-0.671473
-0.249906
-0.338251
-1.40342
-0.77135
-0.287591
-0.254656
-0.96315
-1.64888
-0.832994
-0.168054
-0.249352
-0.927425
-1.36459
-0.250124
-1.31626
-0.241666
-0.249474
-0.336072
-0.316507
-0.411682
-0.289752
-0.895944
-1.02388
-0.37291
-0.235927
-0.437178
-0.331544
-0.767758
-0.340117
-0.250344
-0.361723
-0.265851
-1.48824
-0.78582
-0.838941
-0.882382
-0.566195
-0.237004
-1.46574
-0.955873
-0.741365
-0.843513
-0.175068
-0.250346
-0.357743
-0.581305
-0.460514
-0.23688
-0.780305
-0.789385
-1.50143
-0.235497
-0.313588
-0.600993
-0.25072
-0.236655
-0.237349
-0.863239
-2.04829
-1.00048
-0.237627
-0.362849
-0.2504
-0.234043
-0.686728
-0.288682
-0.513272
-0.305641
-0.952363
-0.677662
-0.238198
-0.238332
-0.767869
-0.910491
-0.183093
-0.400676
-0.861661
-0.239707
-0.949015
-1.05131
-0.685433
-0.239901
-0.242267
-0.86606
-0.237816
-1.14226
-0.936234
-0.235222
-0.762286
-0.238666
-1.0168
-0.9148
-0.234777
-0.248878
-0.530081
-1.43289
-0.748099
-0.581131
-0.238966
-0.238783
-0.818974
-1.60712
-0.818945
-0.172942
-0.246462
-1.14399
-0.794629
-1.16587
-0.249165
-0.239748
-1.17661
-1.17191
-0.944008
-0.111642
-0.247155
-1.21034
-0.806776
-0.164773
-0.238559
-1.03418
-0.239413
-0.407948
-0.407111
-0.277229
-0.421726
-0.906277
-0.232843
-0.25041
-0.27491
-0.233553
-0.235284
-1.00324
-0.940314
-0.240546
-0.368988
-0.407021
-0.225964
-0.371847
-0.240798
-0.2474
-0.839412
-0.936612
-0.238411
-0.23935
-0.220257
-0.249668
-0.233888
-0.99888
-1.03538
-0.951545
-0.249739
-1.44664
-1.60921
-0.928356
-0.97929
-1.61846
-0.66215
-0.523551
-0.237722
-0.238526
-0.239818
-0.239562
-0.247415
-0.897976
-0.230118
-0.249273
-1.05078
-0.925985
-0.111809
-0.247171
-0.414113
-1.83764
-0.874638
-0.275492
-0.330989
-0.238972
-0.246742
-0.596605
-1.41927
-0.360351
-0.340883
-0.489571
-0.860689
-0.416001
-0.299974
-0.44042
-0.991827
-0.18614
-0.248297
-0.182742
-0.248021
-0.239012
-0.244506
-0.251018
-0.413962
-0.27724
-0.970706
-0.268626
-0.251191
-1.77758
-0.859244
-0.276804
-0.252194
-1.01785
-0.238888
-0.301262
-0.252385
-0.339446
-0.343484
-0.351205
-0.78999
-0.238858
-0.374158
-1.75359
-0.851972
-0.262677
-0.250364
-1.7348
-0.226643
-0.249958
-0.249998
-0.982775
-0.251013
-0.250305
-0.262445
-0.250632
-0.25616
-0.250725
-0.587666
-0.842068
-0.26673
-0.670575
-0.880433
-0.276582
-0.384994
-0.285222
-0.519811
-0.945297
-0.3436
-1.44799
-0.773862
-0.64585
-0.795148
-0.207723
-0.25149
-0.254348
-0.201654
-0.249636
-0.982247
-1.68054
-0.250965
-0.381454
-2.01576
-0.954415
-0.213804
-0.255345
-0.263484
-0.805394
-1.04539
-0.666218
-0.815816
-1.57166
-1.30539
-0.871376
-0.468517
-0.993961
-0.394225
-0.398227
-0.431974
-0.364111
-0.365894
-0.315117
-0.403438
-0.912641
-1.56485
-1.61554
-0.820529
-0.263082
-0.251394
-0.256699
-0.413043
-0.400739
-0.25743
-0.253889
-0.175782
-0.24634
-1.35611
-0.891785
-0.253034
-1.13006
-0.701082
-1.4175
-0.90178
-0.252063
-0.565195
-0.31638
-0.250139
-0.35268
-0.877483
-0.841184
-0.983626
-0.340286
-0.825276
-0.775541
-0.876829
-0.323126
-0.249931
-0.249092
-0.215882
-0.249036
-0.269695
-0.249016
-0.242556
-0.21171
-0.248971
-1.03945
-0.699389
-0.206676
-0.248913
-0.430806
-0.650849
-0.88189
-0.621769
-0.399634
-0.570277
-0.847151
-0.801312
-1.23231
-0.209257
-0.248886
-0.232863
-0.248751
-0.231234
-0.228506
-0.947836
-0.248914
-0.235746
-0.246106
-0.25452
-0.97444
-0.642184
-1.02624
-0.22733
-0.249147
-0.254554
-0.240618
-0.26674
-1.07061
-0.241384
-0.363583
-0.817915
-1.58146
-0.239599
-0.221553
-0.320967
-0.237565
-1.56716
-0.239998
-0.735102
-0.554175
-0.869194
-0.970915
-0.68357
-0.239079
-0.242977
-0.867583
-0.486226
-0.833894
-0.378005
-0.269383
-0.986825
-0.367171
-0.740442
-0.345518
-0.68024
-0.407935
-0.716801
-0.514051
-0.441558
-0.782595
-0.587963
-0.455942
-0.775233
-0.196463
-0.248695
-0.234027
-0.827793
-0.201015
-0.248772
-0.24136
-0.827555
-1.19233
-0.394675
-0.278885
-0.421696
-0.989509
-0.166169
-0.299714
-0.265877
-0.272637
-0.252748
-0.973561
-0.162393
-0.239285
-0.162481
-0.316101
-0.285331
-0.989704
-0.949029
-1.07579
-0.96557
-0.233776
-0.760133
-0.930986
-0.100366
-0.232284
-1.77014
-0.985407
-0.238784
-0.918463
-0.681018
-0.16064
-0.700774
-0.233734
-0.23232
-0.749293
-0.884688
-0.565736
-0.677375
-0.233808
-0.625226
-0.232391
-0.769214
-0.701303
-0.780493
-0.531918
-0.303225
-0.327425
-0.246087
-1.20521
-0.73208
-0.244283
-1.12854
-0.71698
-0.239759
-0.296222
-0.224646
-0.31143
-1.62574
-0.823284
-0.90959
-0.245022
-0.352168
-1.21654
-0.903063
-0.871413
-0.931101
-0.804437
-0.966596
-1.5891
-0.817082
-0.974051
-0.403626
-0.262158
-0.980537
-0.407969
-0.269436
-0.268181
-0.25336
-1.75672
-0.871683
-0.172985
-0.254221
-0.173807
-1.80433
-0.889775
-0.142858
-0.260625
-1.8656
-0.891546
-0.177296
-0.150809
-0.242704
-0.985208
-0.41565
-0.282804
-0.291695
-0.414473
-0.281251
-0.24259
-0.546593
-0.777665
-0.297512
-0.425678
-0.297075
-0.312881
-0.431483
-0.312261
-0.332266
-0.443111
-0.333545
-0.961325
-0.159666
-0.379372
-0.540223
-0.454981
-0.353281
-0.514605
-0.166656
-0.799241
-0.450817
-0.353542
-0.972904
-0.468482
-0.378189
-0.535326
-0.168717
-0.839891
-0.464437
-0.376223
-0.982209
-0.351036
-0.161584
-0.240219
-0.165217
-0.242607
-0.418769
-0.288592
-0.279679
-0.160219
-0.502129
-0.390546
-0.261481
-0.409034
-0.791862
-0.887735
-0.16472
-0.242639
-1.48364
-0.783453
-1.5151
-0.794544
-1.01004
-0.236471
-0.237389
-0.237674
-0.23868
-0.945063
-1.02074
-0.237542
-0.239004
-0.238789
-0.240471
-0.604769
-0.778859
-0.736088
-0.985673
-0.898662
-0.838414
-0.628714
-0.238889
-2.0713
-1.02684
-2.09833
-0.239811
-0.240931
-0.655814
-2.08869
-1.03786