# vtk DataFile Version 2.0
Unstructured Grid by M++
ASCII
DATASET UNSTRUCTURED_GRID
POINTS 289 float
  0.125000   0.750000 0
  0.500000   0.625000 0
  0.250000   0.625000 0
  0.625000   0.500000 0
  0.125000   0.500000 0
  0.875000   0.750000 0
  0.500000   0.875000 0
  0.375000   0.125000 0
  0.500000   0.500000 0
  0.875000   0.375000 0
  0.750000   0.125000 0
  0.875000   0.875000 0
  1.000000   0.750000 0
  0.625000   0.875000 0
  1.000000   0.875000 0
  0.625000   1.000000 0
  0.500000   0.250000 0
  1.000000   0.375000 0
  0.750000   0.750000 0
  0.500000   0.750000 0
  0.875000   0.625000 0
  0.750000   0.375000 0
  0.625000   0.750000 0
  0.250000   0.875000 0
  0.125000   0.125000 0
  1.000000   0.500000 0
  0.625000   0.625000 0
  0.750000   0.875000 0
  0.250000   0.250000 0
  0.375000   1.000000 0
  1.000000   0.125000 0
  0.750000   1.000000 0
  0.625000   0.250000 0
  0.750000   0.500000 0
  1.000000   1.000000 0
  0.875000   0.250000 0
  1.000000   0.625000 0
  0.875000   1.000000 0
  0.375000   0.375000 0
  0.875000   0.500000 0
  0.500000   1.000000 0
  0.750000   0.625000 0
  0.375000   0.750000 0
  1.000000   0.250000 0
  0.625000   0.375000 0
  0.375000   0.875000 0
  0.125000   1.000000 0
  0.250000   1.000000 0
  0.125000   0.250000 0
  0.375000  -0.125000 0
  0.125000  -0.500000 0
  0.250000   0.000000 0
  0.125000  -0.250000 0
  0.750000  -0.125000 0
  0.375000  -0.375000 0
  0.375000  -0.250000 0
  0.375000  -0.625000 0
  0.750000  -0.875000 0
  0.750000  -0.500000 0
  0.375000  -0.750000 0
  0.250000  -0.250000 0
  0.625000   0.000000 0
  0.125000  -1.000000 0
  1.000000  -0.250000 0
  0.250000  -0.375000 0
  0.250000  -1.000000 0
  0.125000  -0.875000 0
 -0.875000   0.875000 0
 -0.375000   0.875000 0
 -0.250000   0.375000 0
 -1.000000   0.250000 0
 -1.000000   0.875000 0
  0.000000   0.375000 0
 -0.250000  -0.250000 0
  0.250000  -0.125000 0
 -0.750000  -0.250000 0
 -0.500000  -0.250000 0
 -1.000000  -0.250000 0
 -0.125000  -0.125000 0
  0.125000   0.000000 0
 -0.875000  -0.125000 0
 -0.375000  -0.125000 0
  0.875000  -0.625000 0
 -0.750000  -0.875000 0
 -0.250000  -0.875000 0
 -1.000000  -0.875000 0
 -0.500000  -0.875000 0
 -0.375000  -1.000000 0
 -0.875000  -1.000000 0
 -0.625000  -1.000000 0
  0.750000  -0.375000 0
 -0.250000  -0.500000 0
  0.500000  -0.500000 0
  0.250000  -0.500000 0
  0.500000   0.000000 0
 -0.500000  -0.125000 0
  0.750000   0.000000 0
 -0.250000  -0.125000 0
  0.000000  -0.125000 0
  1.000000  -0.625000 0
 -0.125000  -0.250000 0
  0.625000  -0.125000 0
 -0.375000  -0.250000 0
 -0.250000  -1.000000 0
 -0.500000  -1.000000 0
  0.000000  -1.000000 0
  0.375000   0.500000 0
 -0.625000   0.375000 0
  0.875000  -0.125000 0
 -0.125000  -0.500000 0
 -0.625000  -0.500000 0
  0.000000  -0.625000 0
 -0.750000  -0.625000 0
 -0.250000  -0.625000 0
 -0.500000  -0.625000 0
 -0.375000  -0.375000 0
 -0.625000  -0.375000 0
 -0.875000  -0.375000 0
 -0.625000   0.000000 0
 -0.875000   0.000000 0
 -0.750000  -0.750000 0
 -1.000000  -0.750000 0
 -0.500000  -0.750000 0
 -0.250000  -0.375000 0
  0.500000  -0.250000 0
 -0.500000  -0.375000 0
  0.000000  -0.375000 0
  1.000000  -0.875000 0
  0.500000   0.125000 0
 -0.500000   0.000000 0
  0.250000   0.125000 0
 -0.750000   0.000000 0
 -0.250000   0.000000 0
  1.000000  -0.500000 0
 -0.625000  -0.750000 0
 -0.875000  -0.750000 0
 -0.375000  -0.750000 0
 -0.125000  -0.750000 0
 -0.625000  -0.250000 0
 -0.875000  -0.250000 0
 -0.750000  -1.000000 0
 -1.000000  -1.000000 0
 -1.000000  -0.125000 0
 -0.750000  -0.125000 0
  0.875000  -0.500000 0
 -0.125000  -0.625000 0
  0.625000  -0.500000 0
 -0.375000  -0.625000 0
  0.125000  -0.625000 0
  0.000000   0.000000 0
 -1.000000   0.500000 0
 -0.750000   0.500000 0
  0.125000  -0.375000 0
  0.750000  -0.625000 0
 -0.250000  -0.750000 0
  0.000000  -0.750000 0
  0.250000  -0.750000 0
  0.875000   0.125000 0
 -0.125000   0.000000 0
  0.625000   0.125000 0
 -0.375000   0.000000 0
 -0.125000  -1.000000 0
  0.625000  -1.000000 0
  0.375000  -1.000000 0
  1.000000  -0.125000 0
  0.000000  -0.250000 0
 -0.500000   1.000000 0
 -1.000000   1.000000 0
 -0.750000   1.000000 0
 -1.000000   0.000000 0
 -0.750000  -0.375000 0
 -1.000000  -0.375000 0
 -0.375000  -0.875000 0
  0.875000  -0.750000 0
 -0.125000  -0.875000 0
  1.000000  -0.750000 0
  0.000000  -0.875000 0
  0.250000  -0.875000 0
  0.500000  -0.875000 0
 -0.875000  -0.500000 0
 -0.625000  -0.875000 0
 -0.875000  -0.875000 0
 -0.875000   0.125000 0
 -0.375000  -0.500000 0
  0.625000  -0.375000 0
 -1.000000  -0.625000 0
 -0.750000  -0.500000 0
 -0.500000  -0.500000 0
 -1.000000  -0.500000 0
 -0.250000   0.250000 0
 -0.750000   0.125000 0
  0.000000   0.250000 0
 -1.000000   0.125000 0
 -0.500000   0.125000 0
  0.500000  -0.375000 0
  0.000000  -0.500000 0
  1.000000  -0.375000 0
 -0.375000   0.375000 0
 -0.125000   0.375000 0
 -0.875000  -0.625000 0
 -0.625000  -0.625000 0
 -0.500000   0.625000 0
 -0.250000   0.625000 0
 -0.875000   0.375000 0
  0.500000   0.375000 0
 -0.500000   0.250000 0
  0.250000   0.375000 0
 -0.750000   0.250000 0
  0.750000  -0.250000 0
 -0.125000   0.500000 0
 -0.500000   0.375000 0
  0.250000   0.500000 0
 -0.750000   0.375000 0
  0.500000  -0.125000 0
  0.125000   0.625000 0
 -0.875000   0.500000 0
  0.375000   0.625000 0
 -0.625000   0.500000 0
  0.875000   0.000000 0
 -0.125000   0.625000 0
 -0.375000   0.625000 0
  0.750000   0.250000 0
 -0.250000   0.125000 0
 -0.125000   1.000000 0
 -0.375000   1.000000 0
 -0.625000   1.000000 0
  0.000000   0.625000 0
 -0.125000   0.250000 0
  0.000000   1.000000 0
 -0.250000   1.000000 0
 -0.625000   0.250000 0
 -0.375000   0.250000 0
  0.125000   0.375000 0
 -0.875000   0.250000 0
 -0.125000  -0.375000 0
  0.875000  -0.250000 0
  0.625000  -0.250000 0
 -0.250000   0.500000 0
 -1.000000   0.375000 0
  0.000000   0.500000 0
 -0.500000   0.500000 0
  0.000000   0.125000 0
 -1.000000   0.625000 0
 -0.125000   0.875000 0
  0.125000   0.875000 0
 -0.875000   0.750000 0
 -0.875000   0.625000 0
 -0.500000   0.875000 0
 -0.250000   0.875000 0
 -0.750000   0.875000 0
 -0.125000   0.750000 0
 -0.625000   0.750000 0
 -0.375000   0.750000 0
 -0.250000   0.750000 0
  0.000000   0.750000 0
 -0.375000   0.125000 0
  0.375000   0.250000 0
 -0.625000   0.125000 0
  0.875000  -0.375000 0
  0.250000   0.750000 0
 -0.750000   0.625000 0
 -0.125000   0.125000 0
  0.000000   0.875000 0
 -1.000000   0.750000 0
 -0.625000  -0.125000 0
  0.375000   0.000000 0
 -0.625000   0.875000 0
  0.625000  -0.625000 0
 -0.750000   0.750000 0
  0.500000  -0.750000 0
 -0.500000   0.750000 0
  0.750000  -0.750000 0
  0.875000  -0.875000 0
  0.375000  -0.875000 0
 -0.625000   0.625000 0
  0.625000  -0.875000 0
  0.500000  -0.625000 0
  0.250000  -0.625000 0
  0.125000  -0.125000 0
  0.750000  -1.000000 0
  0.500000  -1.000000 0
  1.000000  -1.000000 0
  1.000000   0.000000 0
  0.625000  -0.750000 0
  0.125000  -0.750000 0
 -0.375000   0.500000 0
  0.875000  -1.000000 0
 -0.875000   1.000000 0
  0.375000  -0.500000 0
CELLS 256 1280
4 105 176 161 174
4 91 183 113 147
4 155 137 176 174
4 122 136 114 147
4 154 136 84 172
4 132 97 158 78
4 186 170 179 117
4 154 84 137 174
4 149 158 98 78
4 122 114 134 200
4 75 170 138 116
4 120 134 112 200
4 77 171 139 117
4 188 185 179 199
4 186 110 170 116
4 140 89 83 180
4 169 142 119 80
4 122 134 86 180
4 121 135 185 199
4 154 113 136 147
4 186 112 110 200
4 76 138 125 116
4 77 139 142 80
4 75 143 139 80
4 141 88 85 181
4 186 179 112 199
4 188 179 171 117
4 187 110 114 200
4 103 84 87 172
4 73 100 97 78
4 120 83 134 180
4 129 118 95 264
4 91 123 183 115
4 120 135 83 181
4 131 143 118 264
4 75 139 170 117
4 187 183 125 115
4 140 83 88 181
4 75 138 143 264
4 73 102 123 115
4 187 114 183 147
4 155 111 137 145
4 154 137 113 145
4 76 125 102 115
4 195 126 109 234
4 122 86 136 172
4 120 112 135 199
4 132 160 97 81
4 165 100 126 234
4 76 95 138 264
4 73 123 100 234
4 91 109 123 234
4 103 161 84 174
4 165 98 100 78
4 129 95 160 81
4 195 109 111 145
4 104 87 86 172
4 73 97 102 81
4 187 125 110 116
4 91 113 109 145
4 131 119 143 80
4 121 85 135 181
4 104 86 89 180
4 76 102 95 81
4 189 69 231 197
4 132 222 160 255
4 270 251 201 274
4 189 231 222 255
4 207 230 212 107
4 240 217 210 107
4 268 251 249 266
4 268 260 251 274
4 237 202 285 220
4 205 231 210 197
4 239 226 209 219
4 151 217 260 274
4 253 248 252 68
4 168 249 225 266
4 253 250 248 243
4 129 160 193 255
4 191 72 227 198
4 151 212 217 107
4 253 252 202 220
4 254 250 226 219
4 151 260 215 246
4 263 245 71 67
4 229 248 223 243
4 205 230 193 257
4 132 158 222 261
4 229 224 248 68
4 149 241 158 261
4 268 245 260 246
4 166 247 224 68
4 254 262 250 243
4 189 222 227 261
4 228 223 262 243
4 270 247 251 266
4 253 202 250 219
4 150 215 242 246
4 237 285 69 197
4 207 190 230 257
4 166 225 247 266
4 263 242 245 246
4 167 71 287 67
4 191 227 241 261
4 131 190 119 182
4 270 252 247 68
4 168 287 249 67
4 205 210 230 107
4 237 209 202 219
4 150 238 215 203
4 131 118 190 257
4 240 201 217 274
4 237 69 209 198
4 70 233 238 203
4 205 193 231 255
4 239 209 72 198
4 240 285 201 220
4 207 212 233 203
4 270 201 252 220
4 268 249 245 67
4 151 215 212 203
4 169 119 192 182
4 240 210 285 197
4 207 233 190 182
4 189 227 69 198
4 129 193 118 257
4 70 192 233 182
4 271 283 57 275
4 51 74 265 49
4 60 64 55 54
4 65 163 177 273
4 149 98 79 278
4 60 55 74 49
4 208 236 90 184
4 96 61 53 101
4 93 288 64 54
4 208 53 236 101
4 269 283 276 267
4 156 59 277 56
4 58 90 146 184
4 281 127 286 272
4 165 52 98 278
4 96 53 218 108
4 92 194 288 54
4 208 235 53 108
4 269 276 59 56
4 58 144 90 258
4 271 57 173 272
4 280 162 178 275
4 175 99 173 82
4 92 276 146 267
4 63 235 196 258
4 93 64 50 152
4 279 286 57 272
4 269 59 178 273
4 60 52 64 152
4 94 213 61 101
4 63 164 235 108
4 282 218 164 108
4 124 236 213 101
4 51 79 74 278
4 92 288 276 56
4 124 213 55 49
4 208 90 235 258
4 195 50 126 152
4 94 265 213 49
4 165 126 52 152
4 124 55 194 54
4 195 111 50 148
4 58 153 144 82
4 155 284 111 148
4 269 178 283 275
4 133 144 99 82
4 156 277 284 148
4 133 196 144 258
4 124 194 236 184
4 93 50 277 148
4 92 146 194 184
4 60 74 52 278
4 105 62 176 66
4 175 173 127 272
4 65 177 62 66
4 156 284 177 66
4 271 173 153 82
4 280 178 163 273
4 155 176 284 66
4 93 277 288 56
4 271 153 283 267
4 279 57 162 275
4 156 177 59 273
4 58 146 153 267
4 33 3 21 44
4 221 21 32 44
4 40 29 6 45
4 28 130 256 7
4 16 32 204 44
4 43 35 30 157
4 25 36 39 20
4 33 21 39 9
4 25 39 17 9
4 8 3 1 26
4 96 10 61 159
4 18 5 27 11
4 221 10 35 157
4 34 37 14 11
4 43 17 35 9
4 18 22 41 26
4 19 22 6 13
4 12 5 36 20
4 19 6 42 45
4 51 265 130 7
4 18 41 5 20
4 221 32 10 159
4 28 256 206 38
4 31 27 37 11
4 31 15 27 13
4 282 30 218 157
4 16 256 128 7
4 40 6 15 13
4 96 218 10 157
4 12 14 5 11
4 239 4 226 214
4 8 204 3 44
4 211 2 4 214
4 259 0 2 214
4 228 262 46 244
4 211 106 2 216
4 254 0 262 244
4 211 206 106 38
4 221 35 21 9
4 8 106 204 38
4 254 226 0 214
4 8 1 106 216
4 19 1 22 26
4 259 23 0 244
4 149 79 241 24
4 259 42 23 45
4 51 130 79 24
4 94 61 128 159
4 47 23 29 45
4 18 27 22 13
4 28 48 130 24
4 94 128 265 7
4 47 46 23 244
4 191 241 48 24
4 16 204 256 38
4 239 72 4 232
4 191 48 72 232
4 16 128 32 159
4 28 206 48 232
4 211 4 206 232
4 33 39 41 20
4 19 42 1 216
4 33 41 3 26
4 259 2 42 216
CELL_TYPES 256
8
8
8
8
8
8
8
8
8
8
8
8
8
8
8
8
8
8
8
8
8
8
8
8
8
8
8
8
8
8
8
8
8
8
8
8
8
8
8
8
8
8
8
8
8
8
8
8
8
8
8
8
8
8
8
8
8
8
8
8
8
8
8
8
8
8
8
8
8
8
8
8
8
8
8
8
8
8
8
8
8
8
8
8
8
8
8
8
8
8
8
8
8
8
8
8
8
8
8
8
8
8
8
8
8
8
8
8
8
8
8
8
8
8
8
8
8
8
8
8
8
8
8
8
8
8
8
8
8
8
8
8
8
8
8
8
8
8
8
8
8
8
8
8
8
8
8
8
8
8
8
8
8
8
8
8
8
8
8
8
8
8
8
8
8
8
8
8
8
8
8
8
8
8
8
8
8
8
8
8
8
8
8
8
8
8
8
8
8
8
8
8
8
8
8
8
8
8
8
8
8
8
8
8
8
8
8
8
8
8
8
8
8
8
8
8
8
8
8
8
8
8
8
8
8
8
8
8
8
8
8
8
8
8
8
8
8
8
8
8
8
8
8
8
8
8
8
8
8
8
8
8
8
8
8
8
CELL_DATA 256
VECTORS vector_value float
-0.107166 -2.00641 0
-0.623719 -2.18571 0
-0.151486 -2.10448 0
-0.515719 -1.99322 0
-0.379321 -2.01213 0
-4.33809 -1.32243 0
-0.335238 -1.49638 0
-0.273539 -2.06881 0
-9.58476 -9.85582 0
-0.499774 -1.91327 0
-0.647473 -1.33059 0
-0.422894 -1.87403 0
-0.126421 -1.22677 0
-0.102059 -1.67869 0
-0.548473 -1.56898 0
-0.502495 -1.98468 0
-0.140238 -0.680408 0
-0.465851 -1.93899 0
-0.10271 -1.87795 0
-0.464365 -2.09861 0
-0.465448 -1.74585 0
-0.926404 -1.47722 0
-0.137242 -0.961211 0
-0.420224 -0.979602 0
-0.368954 -2.44759 0
-0.296982 -1.69716 0
-0.112727 -1.46594 0
-0.592131 -1.84152 0
-0.338251 -1.91846 0
-2.87903 -3.46965 0
-0.435556 -1.95697 0
-1.17807 -0.688538 0
-0.911222 -2.26635 0
-0.341099 -2.02896 0
-0.764668 -0.675981 0
-0.382324 -1.2571 0
-0.888333 -1.93802 0
-0.486144 -2.12467 0
-0.730793 -1.02733 0
-1.44543 -2.28171 0
-0.65463 -1.99284 0
-0.175518 -2.2605 0
-0.346119 -2.19956 0
-1.21135 -1.75282 0
-0.327806 -2.86502 0
-0.445961 -1.96272 0
-0.286309 -1.86949 0
-2.64835 -0.96001 0
-0.601481 -3.53792 0
-1.09455 -1.13217 0
-1.25695 -2.98257 0
-0.733452 -2.62319 0
-0.226082 -1.95031 0
-1.02258 -4.95749 0
-1.74913 -0.743029 0
-0.225093 -2.49234 0
-0.42453 -1.90537 0
-2.1346 -1.85926 0
-0.74178 -1.70598 0
-0.475912 -2.37391 0
-0.432634 -0.677423 0
-0.123728 -2.09631 0
-0.47988 -1.92169 0
-1.54849 -1.36184 0
0.188792 -0.328518 0
0.0188718 -0.320951 0
0.310146 -0.687474 0
0.0974083 -0.318439 0
0.0946793 -0.536149 0
0.191731 -0.530665 0
0.241019 -0.830694 0
0.213128 -0.730777 0
0.410335 -0.416526 0
0.163845 -0.416889 0
0.51253 -0.106435 0
0.17678 -0.647318 0
0.657109 -0.666899 0
0.256278 -0.94217 0
0.866849 -0.493437 0
0.0213591 -0.389763 0
0.203247 -0.0913467 0
0.136219 -0.582443 0
0.537749 -0.511963 0
0.722688 -0.133983 0
0.104266 -0.678135 0
0.0458091 -0.856067 0
1.0261 -0.817085 0
0.0734908 -0.459392 0
0.00530958 -0.251251 0
0.733301 -0.879067 0
-0.0584842 -0.165332 0
0.124519 -0.756562 0
0.533092 -0.913218 0
1.02231 -0.193433 0
0.0901806 -0.224732 0
1.58492 -0.39523 0
0.35546 -0.800792 0
0.650617 -0.349833 0
0.0344382 -0.692818 0
0.293394 -0.359154 0
0.053977 -0.507308 0
0.380855 -0.931417 0
0.04095 -0.768645 0
0.0484179 -0.951131 0
0.0646387 -0.102656 0
0.00906807 -0.525617 0
0.490764 -0.751269 0
0.147998 -0.948312 0
0.131099 -0.485755 0
0.475368 -0.275992 0
0.0269323 -0.631223 0
0.0146158 -0.494526 0
0.25307 -0.597196 0
0.328995 -0.236375 0
0.0189909 -0.585234 0
0.0892463 -0.39605 0
0.346637 -0.0936655 0
0.332553 -0.52243 0
0.0569663 -0.56903 0
0.418398 -0.619318 0
0.139765 -0.848045 0
0.0811589 -0.615294 0
0.00306422 -0.54128 0
0.245602 -0.457142 0
0.0327928 -0.539303 0
0.201662 -0.219361 0
0.0191044 -0.448695 0
0.0109808 -0.555282 0
-0.0495051 0.0343748 0
-0.0276707 -0.0621593 0
-0.0533365 -0.0311585 0
-0.0850724 0.0123903 0
-0.112853 -0.110926 0
-0.0441956 -0.0472613 0
-0.0210112 -0.0104424 0
-0.00822122 -0.02332 0
-0.0583119 -0.0184533 0
-0.0149751 -0.0181048 0
-0.0510471 0.0139774 0
-0.0686625 -0.000805497 0
-0.026634 -0.000907572 0
-0.0347574 0.0906756 0
-0.10133 -0.0453837 0
-0.00471075 -0.0176479 0
-0.0473978 -0.0132611 0
-0.00875099 -0.0129828 0
-0.0605781 0.00618801 0
-0.0161875 0.00372754 0
-0.0356201 0.0465292 0
-0.0703376 0.0328068 0
-0.00907846 0.0341547 0
-0.0435704 0.00353372 0
-0.00416049 -0.0033312 0
-0.0688485 -0.0208862 0
-0.0517448 0.0611025 0
-0.0687397 0.0146076 0
-0.0691878 -0.0333617 0
-0.0124759 -0.0320945 0
-0.0028853 -0.0103947 0
-0.00153786 -0.0148483 0
-0.0220651 -0.0256735 0
-0.0463245 -0.09077 0
-0.0536727 -0.00305908 0
-0.0310646 -0.0355304 0
-0.012506 -0.00577328 0
-0.0769674 -0.0197008 0
-0.0182953 -0.0445961 0
-0.0832443 -0.0279309 0
-0.0404178 -0.0243953 0
-0.0761056 -0.0149804 0
-0.0202967 0.0154436 0
-0.0790511 -0.01182 0
-0.0599887 0.0239215 0
-0.00691928 0.0185066 0
-0.075011 -0.00680367 0
-0.00544335 0.00624981 0
-0.0300596 -0.0169044 0
-0.0707325 -0.0127727 0
-0.0369115 -0.00692017 0
-0.0672679 -0.0561189 0
-0.0937104 -0.00755016 0
-0.0125727 0.0552654 0
-0.0904606 0.00251452 0
-0.0816225 -0.00193262 0
-0.0257893 0.0295658 0
-0.078189 0.0223225 0
-0.0849699 -0.00944655 0
-0.0629019 -0.0087317 0
-0.0397933 0.0221776 0
-0.06172 0.0449173 0
-0.076042 0.00606014 0
-0.0325287 0.0100747 0
-0.350397 -0.972401 0
-0.50795 -0.795106 0
0.275147 -1.09315 0
-1.97757 -1.59426 0
-0.739022 -1.00679 0
-0.119033 -0.40514 0
-0.0448665 -0.907559 0
-0.212317 -0.849317 0
-0.0709586 -0.792512 0
-0.240745 -1.2434 0
-0.726953 -0.203032 0
-0.012371 -1.0252 0
-0.36652 -0.444198 0
0.0014676 -1.00286 0
-0.0972125 -0.623671 0
-0.0786105 -1.09577 0
0.0673438 -1.15595 0
-0.0226503 -0.97327 0
0.189661 -1.26683 0
-2.58821 -0.703157 0
-0.0612464 -1.01311 0
-0.644214 -0.532678 0
-1.18419 -1.99593 0
0.0127897 -1.01132 0
0.049682 -1.02861 0
-0.132027 -0.150482 0
-1.40915 -1.00424 0
0.130432 -1.05546 0
-0.408698 -0.166596 0
-0.00675864 -1.00027 0
0.36912 -2.43744 0
-0.475996 -1.18129 0
0.0877298 -2.14592 0
0.397293 -1.90607 0
1.53044 -1.65753 0
-0.119371 -1.80861 0
0.956729 -1.97541 0
-0.534953 -1.94487 0
-0.296075 -0.676878 0
-0.562588 -1.50512 0
0.631077 -2.18608 0
-0.223613 -1.49381 0
-0.0571513 -1.22567 0
0.683319 -1.64374 0
-9.52731 -9.80444 0
0.391074 -1.41559 0
-4.27757 -1.16461 0
-1.12943 -0.271528 0
0.508543 -1.14735 0
0.00635847 -1.07638 0
-2.71162 -3.30939 0
-1.69294 -0.398743 0
0.872728 -1.22608 0
-0.853182 -4.90964 0
-0.982816 -1.36622 0
0.100739 -2.81693 0
-0.31089 -3.49137 0
-0.979061 -0.697293 0
-0.974049 -2.81175 0
-0.320732 -2.4316 0
-0.130235 -0.958927 0
0.023233 -1.4057 0
-0.200837 -1.06749 0
0.178666 -1.63578 0
