# vtk DataFile Version 2.0
Unstructured Grid by M++
ASCII
DATASET UNSTRUCTURED_GRID
POINTS 289 float
  0.125000   1.000000 0
  0.125000   0.750000 0
  0.500000   0.625000 0
  0.375000   0.875000 0
  0.250000   0.625000 0
  0.625000   0.500000 0
  0.125000   0.500000 0
  0.500000   0.875000 0
  0.875000   0.750000 0
  0.375000   0.125000 0
  0.250000   0.875000 0
  0.625000   0.750000 0
  0.125000   0.125000 0
  0.750000   0.125000 0
  0.875000   0.875000 0
  1.000000   0.750000 0
  0.625000   0.875000 0
  1.000000   0.875000 0
  0.625000   1.000000 0
  0.500000   0.250000 0
  1.000000   1.000000 0
  0.875000   0.250000 0
  1.000000   0.375000 0
  0.750000   0.750000 0
  0.500000   0.750000 0
  0.875000   0.625000 0
  0.750000   0.375000 0
  0.875000   1.000000 0
  0.375000   0.375000 0
  0.875000   0.500000 0
  1.000000   0.500000 0
  0.625000   0.625000 0
  0.750000   0.875000 0
  0.250000   0.250000 0
  0.375000   1.000000 0
  1.000000   0.125000 0
  0.750000   1.000000 0
  0.625000   0.250000 0
  0.750000   0.500000 0
  0.875000   0.375000 0
  0.500000   0.500000 0
  1.000000   0.625000 0
  0.500000   1.000000 0
  0.750000   0.625000 0
  0.375000   0.750000 0
  1.000000   0.250000 0
  0.625000   0.375000 0
  0.250000   1.000000 0
  0.125000   0.250000 0
  0.375000  -0.125000 0
  0.125000  -0.500000 0
  0.250000   0.000000 0
  0.125000  -0.250000 0
  0.750000  -0.125000 0
  0.375000  -0.375000 0
  0.375000  -0.250000 0
  0.375000  -0.625000 0
  0.750000  -0.875000 0
  0.750000  -0.500000 0
  0.375000  -0.750000 0
  0.625000   0.000000 0
  0.250000  -0.250000 0
  0.125000  -1.000000 0
  1.000000  -0.250000 0
  0.250000  -0.375000 0
  0.250000  -0.500000 0
  0.625000  -0.250000 0
  0.375000   0.500000 0
 -0.625000   0.375000 0
  0.875000  -0.125000 0
  0.000000  -0.625000 0
 -0.500000  -0.625000 0
 -0.250000  -0.625000 0
 -0.750000  -0.625000 0
 -0.125000  -0.500000 0
 -0.625000  -0.500000 0
  0.125000  -0.625000 0
  0.000000   0.625000 0
  0.500000  -0.250000 0
 -0.500000  -0.375000 0
 -0.250000  -0.375000 0
  0.000000  -0.375000 0
  1.000000  -0.875000 0
  1.000000  -0.375000 0
  0.000000  -0.500000 0
  0.750000  -0.375000 0
 -0.250000  -0.500000 0
  0.500000  -0.500000 0
 -0.125000  -1.000000 0
  0.625000  -1.000000 0
  0.375000  -1.000000 0
  1.000000  -0.125000 0
  0.000000  -0.250000 0
 -1.000000  -0.250000 0
 -0.500000  -0.250000 0
 -0.250000  -0.250000 0
  0.250000  -0.125000 0
 -0.750000  -0.250000 0
 -0.625000  -0.375000 0
 -0.875000  -0.375000 0
 -0.375000  -0.375000 0
 -0.875000  -0.250000 0
 -0.625000  -0.250000 0
 -1.000000  -1.000000 0
 -0.750000  -1.000000 0
 -0.500000  -0.500000 0
 -0.750000  -0.500000 0
 -1.000000  -0.500000 0
 -0.875000  -0.500000 0
 -1.000000  -0.125000 0
 -0.750000  -0.125000 0
  0.250000   0.500000 0
 -0.750000   0.375000 0
 -0.500000   0.375000 0
  0.500000  -0.125000 0
 -0.125000  -0.750000 0
 -0.625000  -0.750000 0
 -0.375000  -0.750000 0
 -0.875000  -0.750000 0
 -0.625000   0.000000 0
 -0.875000   0.000000 0
 -0.375000  -0.625000 0
  0.625000  -0.500000 0
 -0.125000  -0.625000 0
  0.875000  -0.500000 0
 -0.750000  -0.750000 0
 -1.000000  -0.750000 0
 -0.500000  -0.750000 0
 -0.625000  -0.875000 0
 -0.875000  -0.875000 0
  0.000000  -0.750000 0
  0.750000  -0.625000 0
 -0.250000  -0.750000 0
  0.250000  -0.750000 0
  0.500000   0.125000 0
 -0.500000   0.000000 0
 -0.250000   0.000000 0
  0.250000   0.125000 0
 -0.750000   0.000000 0
  1.000000  -0.500000 0
 -0.250000  -0.875000 0
 -1.000000  -0.875000 0
 -0.750000  -0.875000 0
 -0.500000  -0.875000 0
 -0.125000  -0.125000 0
  0.125000   0.000000 0
 -0.875000  -0.125000 0
 -0.375000  -0.125000 0
  0.875000  -0.625000 0
 -0.500000   0.625000 0
 -0.250000   0.625000 0
 -0.875000   0.375000 0
 -1.000000  -0.375000 0
 -0.750000  -0.375000 0
 -0.500000   1.000000 0
 -0.750000   1.000000 0
 -1.000000   1.000000 0
 -1.000000   0.000000 0
  1.000000  -0.750000 0
  0.000000  -0.875000 0
  0.250000  -0.875000 0
  0.500000  -0.875000 0
  0.500000   0.000000 0
 -0.500000  -0.125000 0
  0.000000  -0.125000 0
  1.000000  -0.625000 0
 -0.250000  -1.000000 0
  0.000000  -1.000000 0
 -0.500000  -1.000000 0
  0.250000  -1.000000 0
 -0.125000  -0.250000 0
  0.625000  -0.125000 0
 -0.375000  -0.250000 0
 -0.375000  -0.875000 0
  0.875000  -0.750000 0
 -0.125000  -0.875000 0
  0.125000  -0.875000 0
 -0.875000   0.125000 0
 -0.375000  -0.500000 0
  0.625000  -0.375000 0
 -1.000000  -0.625000 0
  0.125000  -0.375000 0
 -0.250000   0.250000 0
 -0.750000   0.125000 0
 -0.500000   0.125000 0
  0.000000   0.250000 0
 -1.000000   0.125000 0
  0.500000  -0.375000 0
 -0.375000   0.375000 0
 -0.125000   0.375000 0
 -0.875000  -0.625000 0
 -0.625000  -0.625000 0
  0.000000   0.000000 0
 -1.000000   0.500000 0
 -0.750000   0.500000 0
 -0.250000  -0.125000 0
  0.750000   0.000000 0
 -0.625000  -1.000000 0
 -0.375000  -1.000000 0
 -0.875000  -1.000000 0
  0.625000   0.125000 0
 -0.375000   0.000000 0
  0.875000   0.125000 0
 -0.125000   0.000000 0
  0.125000   0.375000 0
 -0.875000   0.250000 0
 -0.625000   0.250000 0
 -0.375000   0.250000 0
 -0.125000  -0.375000 0
  0.875000  -0.250000 0
 -0.500000   0.500000 0
 -0.250000   0.500000 0
 -1.000000   0.375000 0
  0.000000   0.500000 0
 -0.250000   1.000000 0
  0.000000   1.000000 0
  0.000000   0.125000 0
 -1.000000   0.625000 0
 -0.375000   0.625000 0
 -0.125000   0.625000 0
 -1.000000   0.250000 0
 -0.250000   0.375000 0
 -0.125000   0.750000 0
 -0.625000   0.750000 0
 -0.375000   0.750000 0
 -0.500000   0.875000 0
 -0.250000   0.875000 0
 -0.750000   0.875000 0
 -0.875000   0.625000 0
  0.500000   0.375000 0
 -0.500000   0.250000 0
  0.250000   0.375000 0
 -0.750000   0.250000 0
  0.750000  -0.250000 0
 -0.125000   0.500000 0
  0.125000   0.875000 0
 -0.875000   0.750000 0
 -0.125000   0.875000 0
  0.125000   0.625000 0
 -0.875000   0.500000 0
  0.375000   0.625000 0
 -0.625000   0.500000 0
  0.875000   0.000000 0
  0.750000   0.250000 0
 -0.250000   0.125000 0
 -0.125000   1.000000 0
 -0.375000   1.000000 0
 -0.625000   1.000000 0
 -0.250000   0.750000 0
  0.000000   0.750000 0
 -0.375000   0.125000 0
  0.375000   0.250000 0
 -0.625000   0.125000 0
  0.875000  -0.375000 0
  0.000000   0.375000 0
 -1.000000   0.875000 0
  0.250000   0.750000 0
 -0.750000   0.625000 0
 -0.125000   0.250000 0
 -0.125000   0.125000 0
  0.000000   0.875000 0
 -1.000000   0.750000 0
 -0.375000   0.875000 0
 -0.875000   0.875000 0
 -0.625000   0.875000 0
  0.625000  -0.625000 0
 -0.625000  -0.125000 0
  0.375000   0.000000 0
 -0.750000   0.750000 0
  0.500000  -0.750000 0
 -0.500000   0.750000 0
  0.750000  -0.750000 0
  0.875000  -0.875000 0
  0.375000  -0.875000 0
 -0.625000   0.625000 0
  0.625000  -0.875000 0
  0.750000  -1.000000 0
  0.500000  -1.000000 0
  1.000000  -1.000000 0
  1.000000   0.000000 0
  0.625000  -0.750000 0
  0.125000  -0.750000 0
  0.250000  -0.625000 0
  0.500000  -0.625000 0
 -0.375000   0.500000 0
  0.875000  -1.000000 0
  0.125000  -0.125000 0
 -0.875000   1.000000 0
  0.375000  -0.500000 0
CELLS 256 1280
4 125 116 73 191
4 106 108 73 190
4 127 116 143 128
4 126 118 180 190
4 107 180 108 190
4 86 178 72 121
4 127 71 116 191
4 192 203 164 144
4 132 140 115 175
4 167 159 88 175
4 93 152 101 99
4 105 178 79 100
4 97 101 153 99
4 86 80 178 100
4 104 197 142 128
4 157 109 120 146
4 106 75 153 98
4 105 75 71 191
4 107 108 152 99
4 136 195 203 144
4 132 117 140 173
4 106 153 108 99
4 138 110 119 266
4 125 118 142 129
4 103 199 141 129
4 97 110 101 146
4 125 142 116 128
4 95 170 195 144
4 135 119 163 266
4 166 140 198 173
4 93 101 109 146
4 94 102 79 98
4 106 73 75 191
4 132 72 117 121
4 97 153 102 98
4 84 74 70 123
4 168 198 143 173
4 95 195 172 147
4 105 79 75 98
4 86 72 74 123
4 168 143 197 128
4 126 141 118 129
4 138 120 110 146
4 94 172 163 147
4 132 115 72 123
4 105 71 178 121
4 130 70 115 123
4 97 102 110 266
4 104 142 199 129
4 95 172 80 100
4 94 79 172 100
4 84 81 74 208
4 125 73 118 190
4 127 143 117 173
4 136 201 195 147
4 92 170 81 208
4 94 163 102 266
4 95 80 170 208
4 86 74 80 208
4 92 164 170 144
4 166 88 140 175
4 135 163 201 147
4 130 115 159 175
4 127 117 71 121
4 182 221 207 188
4 136 244 201 250
4 270 223 149 274
4 182 207 244 250
4 232 206 112 68
4 210 241 113 68
4 211 284 221 188
4 232 183 206 252
4 230 207 113 188
4 213 77 234 219
4 268 257 223 274
4 211 150 284 218
4 248 222 226 237
4 135 201 184 250
4 185 254 258 189
4 194 112 241 68
4 248 224 150 218
4 194 257 239 228
4 249 222 77 219
4 194 241 257 274
4 248 226 224 262
4 155 227 247 264
4 261 236 255 263
4 214 226 245 237
4 230 206 184 252
4 136 203 244 259
4 214 246 226 262
4 192 216 203 259
4 268 236 257 228
4 154 225 246 262
4 249 260 222 237
4 182 244 258 259
4 215 245 260 237
4 193 239 217 228
4 270 225 223 264
4 248 150 222 219
4 154 247 225 264
4 261 217 236 228
4 156 255 287 263
4 185 258 216 259
4 138 183 120 177
4 194 239 112 151
4 270 149 224 218
4 268 227 236 263
4 270 224 225 262
4 155 287 227 263
4 138 119 183 252
4 230 113 206 68
4 211 234 150 219
4 193 212 239 151
4 157 120 186 177
4 210 113 284 188
4 232 205 183 177
4 182 258 221 189
4 220 186 205 177
4 135 184 119 252
4 268 223 227 264
4 230 184 207 250
4 213 234 254 189
4 210 284 149 218
4 232 112 205 151
4 210 149 241 274
4 211 221 234 189
4 220 205 212 151
4 87 122 187 179
4 269 280 283 265
4 271 280 57 275
4 58 85 122 179
4 133 59 282 56
4 271 131 280 265
4 65 282 288 56
4 192 164 145 286
4 196 60 53 171
4 78 187 66 179
4 65 50 282 76
4 139 83 124 253
4 65 288 64 54
4 233 53 66 171
4 61 64 55 54
4 278 82 285 272
4 92 52 164 286
4 196 53 242 69
4 269 283 59 56
4 58 124 85 253
4 271 57 174 272
4 277 89 161 275
4 158 165 174 148
4 61 52 64 181
4 162 114 60 171
4 63 91 209 69
4 279 242 91 69
4 233 209 53 69
4 87 187 288 54
4 87 283 122 265
4 63 209 83 253
4 65 64 50 181
4 276 285 57 272
4 269 59 161 273
4 78 66 114 171
4 51 145 96 286
4 169 90 160 273
4 58 122 131 265
4 276 57 89 275
4 133 160 59 273
4 162 267 114 49
4 92 81 52 181
4 61 96 52 286
4 167 62 159 176
4 158 174 82 272
4 169 160 62 176
4 133 281 160 176
4 271 174 131 148
4 130 159 281 176
4 277 161 90 273
4 51 96 267 49
4 233 66 85 179
4 61 55 96 49
4 269 161 280 275
4 139 124 165 148
4 133 282 281 76
4 87 288 283 56
4 233 85 209 253
4 84 50 81 181
4 78 114 55 49
4 78 55 187 54
4 84 70 50 76
4 58 131 124 148
4 130 281 70 76
4 38 5 26 46
4 243 26 37 46
4 42 34 7 3
4 33 137 251 9
4 256 1 4 238
4 40 229 5 46
4 111 4 6 238
4 30 41 29 25
4 38 26 29 39
4 213 6 77 238
4 19 37 229 46
4 45 21 35 202
4 196 13 60 200
4 23 8 32 14
4 45 22 21 39
4 23 11 43 31
4 24 11 7 16
4 15 8 41 25
4 20 27 17 14
4 243 13 21 202
4 30 29 22 39
4 40 5 2 31
4 36 18 32 16
4 279 35 242 202
4 19 251 134 9
4 42 7 18 16
4 196 242 13 202
4 15 17 8 14
4 24 7 44 3
4 51 267 137 9
4 23 43 8 25
4 243 37 13 200
4 36 32 27 14
4 33 251 231 28
4 215 260 0 235
4 111 67 4 240
4 249 1 260 235
4 111 231 67 28
4 243 21 26 39
4 40 67 229 28
4 249 77 1 238
4 40 2 67 240
4 24 2 11 31
4 256 10 1 235
4 192 145 216 12
4 256 44 10 3
4 51 137 145 12
4 162 60 134 200
4 47 10 34 3
4 23 32 11 16
4 33 48 137 12
4 162 134 267 9
4 47 0 10 235
4 185 216 48 12
4 38 29 43 25
4 24 44 2 240
4 38 43 5 31
4 256 4 44 240
4 19 229 251 28
4 213 254 6 204
4 185 48 254 204
4 19 134 37 200
4 33 231 48 204
4 111 6 231 204
CELL_TYPES 256
8
8
8
8
8
8
8
8
8
8
8
8
8
8
8
8
8
8
8
8
8
8
8
8
8
8
8
8
8
8
8
8
8
8
8
8
8
8
8
8
8
8
8
8
8
8
8
8
8
8
8
8
8
8
8
8
8
8
8
8
8
8
8
8
8
8
8
8
8
8
8
8
8
8
8
8
8
8
8
8
8
8
8
8
8
8
8
8
8
8
8
8
8
8
8
8
8
8
8
8
8
8
8
8
8
8
8
8
8
8
8
8
8
8
8
8
8
8
8
8
8
8
8
8
8
8
8
8
8
8
8
8
8
8
8
8
8
8
8
8
8
8
8
8
8
8
8
8
8
8
8
8
8
8
8
8
8
8
8
8
8
8
8
8
8
8
8
8
8
8
8
8
8
8
8
8
8
8
8
8
8
8
8
8
8
8
8
8
8
8
8
8
8
8
8
8
8
8
8
8
8
8
8
8
8
8
8
8
8
8
8
8
8
8
8
8
8
8
8
8
8
8
8
8
8
8
8
8
8
8
8
8
8
8
8
8
8
8
8
8
8
8
8
8
8
8
8
8
8
8
8
8
8
8
8
8
CELL_DATA 256
VECTORS vector_value float
-0.422894 -1.87403 0
-0.296982 -1.69716 0
-0.465851 -1.93899 0
-0.10271 -1.87795 0
-0.102059 -1.67869 0
-0.623719 -2.18571 0
-0.499774 -1.91327 0
-9.58476 -9.85582 0
-0.273539 -2.06881 0
-0.107166 -2.00641 0
-0.126421 -1.22677 0
-0.888333 -1.93802 0
-0.382324 -1.2571 0
-0.911222 -2.26635 0
-0.502495 -1.98468 0
-0.140238 -0.680408 0
-0.548473 -1.56898 0
-0.592131 -1.84152 0
-0.112727 -1.46594 0
-4.33809 -1.32243 0
-0.379321 -2.01213 0
-0.335238 -1.49638 0
-0.764668 -0.675981 0
-0.341099 -2.02896 0
-0.368954 -2.44759 0
-0.420224 -0.979602 0
-0.435556 -1.95697 0
-2.87903 -3.46965 0
-1.17807 -0.688538 0
-0.338251 -1.91846 0
-0.137242 -0.961211 0
-0.926404 -1.47722 0
-0.465448 -1.74585 0
-0.464365 -2.09861 0
-0.647473 -1.33059 0
-0.225093 -2.49234 0
-0.42453 -1.90537 0
-2.1346 -1.85926 0
-0.74178 -1.70598 0
-0.475912 -2.37391 0
-0.47988 -1.92169 0
-0.123728 -2.09631 0
-0.432634 -0.677423 0
-1.54849 -1.36184 0
-0.346119 -2.19956 0
-0.65463 -1.99284 0
-0.175518 -2.2605 0
-0.730793 -1.02733 0
-0.486144 -2.12467 0
-1.44543 -2.28171 0
-1.21135 -1.75282 0
-0.327806 -2.86502 0
-0.286309 -1.86949 0
-0.445961 -1.96272 0
-2.64835 -0.96001 0
-0.601481 -3.53792 0
-1.09455 -1.13217 0
-1.25695 -2.98257 0
-0.733452 -2.62319 0
-1.02258 -4.95749 0
-0.226082 -1.95031 0
-1.74913 -0.743029 0
-0.151486 -2.10448 0
-0.515719 -1.99322 0
0.188792 -0.328518 0
0.0188718 -0.320951 0
0.310146 -0.687474 0
0.0974083 -0.318439 0
0.0946793 -0.536149 0
0.191731 -0.530665 0
0.293394 -0.359154 0
0.053977 -0.507308 0
0.163845 -0.416889 0
0.51253 -0.106435 0
0.213128 -0.730777 0
0.410335 -0.416526 0
0.866849 -0.493437 0
0.0213591 -0.389763 0
0.203247 -0.0913467 0
0.136219 -0.582443 0
0.537749 -0.511963 0
0.104266 -0.678135 0
0.722688 -0.133983 0
0.17678 -0.647318 0
0.657109 -0.666899 0
0.256278 -0.94217 0
0.0458091 -0.856067 0
1.0261 -0.817085 0
0.0734908 -0.459392 0
0.00530958 -0.251251 0
0.733301 -0.879067 0
-0.0584842 -0.165332 0
0.124519 -0.756562 0
0.533092 -0.913218 0
1.02231 -0.193433 0
0.0901806 -0.224732 0
1.58492 -0.39523 0
0.0344382 -0.692818 0
0.35546 -0.800792 0
0.650617 -0.349833 0
0.380855 -0.931417 0
0.04095 -0.768645 0
0.0484179 -0.951131 0
0.0646387 -0.102656 0
0.00906807 -0.525617 0
0.0811589 -0.615294 0
0.418398 -0.619318 0
0.139765 -0.848045 0
0.490764 -0.751269 0
0.147998 -0.948312 0
0.0146158 -0.494526 0
0.131099 -0.485755 0
0.475368 -0.275992 0
0.0269323 -0.631223 0
0.00306422 -0.54128 0
0.245602 -0.457142 0
0.0327928 -0.539303 0
0.201662 -0.219361 0
0.0109808 -0.555282 0
0.0191044 -0.448695 0
0.241019 -0.830694 0
0.0892463 -0.39605 0
0.346637 -0.0936655 0
0.332553 -0.52243 0
0.0569663 -0.56903 0
0.25307 -0.597196 0
0.328995 -0.236375 0
0.0189909 -0.585234 0
-0.0369115 -0.00692017 0
-0.0510471 0.0139774 0
-0.0495051 0.0343748 0
-0.026634 -0.000907572 0
-0.0686625 -0.000805497 0
-0.0397933 0.0221776 0
-0.0629019 -0.0087317 0
-0.112853 -0.110926 0
-0.00822122 -0.02332 0
-0.0300596 -0.0169044 0
-0.0707325 -0.0127727 0
-0.00544335 0.00624981 0
-0.0583119 -0.0184533 0
-0.0149751 -0.0181048 0
-0.0533365 -0.0311585 0
-0.0347574 0.0906756 0
-0.10133 -0.0453837 0
-0.00471075 -0.0176479 0
-0.0605781 0.00618801 0
-0.0161875 0.00372754 0
-0.0356201 0.0465292 0
-0.0703376 0.0328068 0
-0.00907846 0.0341547 0
-0.0691878 -0.0333617 0
-0.0124759 -0.0320945 0
-0.0028853 -0.0103947 0
-0.00153786 -0.0148483 0
-0.00875099 -0.0129828 0
-0.0473978 -0.0132611 0
-0.0435704 0.00353372 0
-0.00416049 -0.0033312 0
-0.0688485 -0.0208862 0
-0.0517448 0.0611025 0
-0.0687397 0.0146076 0
-0.0220651 -0.0256735 0
-0.0463245 -0.09077 0
-0.0850724 0.0123903 0
-0.0325287 0.0100747 0
-0.06172 0.0449173 0
-0.076042 0.00606014 0
-0.0182953 -0.0445961 0
-0.0832443 -0.0279309 0
-0.0672679 -0.0561189 0
-0.0937104 -0.00755016 0
-0.0125727 0.0552654 0
-0.0904606 0.00251453 0
-0.0816225 -0.00193262 0
-0.0257893 0.0295658 0
-0.0849699 -0.00944655 0
-0.078189 0.0223225 0
-0.0276707 -0.0621593 0
-0.0210112 -0.0104424 0
-0.0441956 -0.0472613 0
-0.0599887 0.0239215 0
-0.00691928 0.0185066 0
-0.075011 -0.00680367 0
-0.0536727 -0.00305908 0
-0.012506 -0.00577328 0
-0.0769674 -0.0197008 0
-0.0310646 -0.0355304 0
-0.0404178 -0.0243953 0
-0.0761056 -0.0149804 0
-0.0202967 0.0154436 0
-0.0790511 -0.01182 0
-0.350397 -0.972401 0
-0.50795 -0.795106 0
0.275147 -1.09315 0
-1.97757 -1.59426 0
0.397293 -1.90607 0
-0.475996 -1.18129 0
0.0877298 -2.14592 0
-0.0448665 -0.907559 0
-0.212317 -0.849317 0
0.36912 -2.43744 0
-0.739022 -1.00679 0
-0.119033 -0.40514 0
-0.726953 -0.203032 0
-0.012371 -1.0252 0
-0.0972125 -0.623671 0
-0.0786105 -1.09577 0
0.0673438 -1.15595 0
-0.0226503 -0.97327 0
0.0014676 -1.00286 0
-0.36652 -0.444198 0
-0.0709586 -0.792512 0
-0.240745 -1.2434 0
0.049682 -1.02861 0
-0.132027 -0.150482 0
-1.40915 -1.00424 0
0.130432 -1.05546 0
-0.408698 -0.166596 0
-0.00675864 -1.00027 0
0.189661 -1.26683 0
-2.58821 -0.703157 0
-0.0612464 -1.01311 0
-0.644214 -0.532678 0
0.0127897 -1.01132 0
-1.18419 -1.99593 0
1.53044 -1.65753 0
-0.119371 -1.80861 0
0.956729 -1.97541 0
-0.534953 -1.94487 0
-0.296075 -0.676878 0
-0.562588 -1.50512 0
0.631077 -2.18608 0
-0.223613 -1.49381 0
-0.0571513 -1.22567 0
0.683319 -1.64374 0
-9.52731 -9.80444 0
0.391074 -1.41559 0
-4.27757 -1.16461 0
-1.12943 -0.271528 0
0.508543 -1.14735 0
0.00635847 -1.07638 0
-2.71162 -3.30939 0
-1.69294 -0.398743 0
0.872728 -1.22608 0
-0.853182 -4.90964 0
-0.130235 -0.958927 0
0.023233 -1.4057 0
-0.200837 -1.06749 0
0.178666 -1.63578 0
-0.982816 -1.36622 0
0.100739 -2.81693 0
-0.31089 -3.49137 0
-0.979061 -0.697293 0
-0.974049 -2.81175 0
-0.320732 -2.4316 0
