# vtk DataFile Version 2.0
Unstructured Grid by M++
ASCII
DATASET UNSTRUCTURED_GRID
POINTS 289 float
  0.125000   1.000000 0
  0.125000   0.750000 0
  0.500000   0.625000 0
  0.375000   0.875000 0
  0.250000   0.625000 0
  0.625000   0.500000 0
  0.125000   0.500000 0
  0.500000   0.875000 0
  0.875000   0.750000 0
  0.375000   0.125000 0
  0.250000   0.875000 0
  0.625000   0.750000 0
  0.125000   0.125000 0
  0.750000   0.125000 0
  0.875000   0.875000 0
  1.000000   0.750000 0
  0.625000   0.875000 0
  1.000000   0.875000 0
  0.625000   1.000000 0
  0.500000   0.250000 0
  1.000000   1.000000 0
  0.875000   0.250000 0
  1.000000   0.375000 0
  0.750000   0.750000 0
  0.500000   0.750000 0
  0.875000   0.625000 0
  0.750000   0.375000 0
  0.875000   1.000000 0
  0.375000   0.375000 0
  0.875000   0.500000 0
  1.000000   0.500000 0
  0.625000   0.625000 0
  0.750000   0.875000 0
  0.250000   0.250000 0
  0.375000   1.000000 0
  1.000000   0.125000 0
  0.750000   1.000000 0
  0.625000   0.250000 0
  0.750000   0.500000 0
  0.875000   0.375000 0
  0.500000   0.500000 0
  1.000000   0.625000 0
  0.500000   1.000000 0
  0.750000   0.625000 0
  0.375000   0.750000 0
  1.000000   0.250000 0
  0.625000   0.375000 0
  0.250000   1.000000 0
  0.125000   0.250000 0
  0.375000  -0.125000 0
  0.125000  -0.500000 0
  0.250000   0.000000 0
  0.125000  -0.250000 0
  0.750000  -0.125000 0
  0.375000  -0.375000 0
  0.375000  -0.250000 0
  0.375000  -0.625000 0
  0.750000  -0.875000 0
  0.750000  -0.500000 0
  0.375000  -0.750000 0
  0.625000   0.000000 0
  0.250000  -0.250000 0
  0.125000  -1.000000 0
  1.000000  -0.250000 0
  0.250000  -0.375000 0
  0.250000  -0.500000 0
  0.625000  -0.250000 0
  0.375000   0.500000 0
 -0.625000   0.375000 0
  0.875000  -0.125000 0
  0.000000  -0.625000 0
 -0.500000  -0.625000 0
 -0.250000  -0.625000 0
 -0.750000  -0.625000 0
 -0.125000  -0.500000 0
 -0.625000  -0.500000 0
  0.125000  -0.625000 0
  0.000000   0.625000 0
  0.500000  -0.250000 0
 -0.500000  -0.375000 0
 -0.250000  -0.375000 0
  0.000000  -0.375000 0
  1.000000  -0.875000 0
  1.000000  -0.375000 0
  0.000000  -0.500000 0
  0.750000  -0.375000 0
 -0.250000  -0.500000 0
  0.500000  -0.500000 0
 -0.125000  -1.000000 0
  0.625000  -1.000000 0
  0.375000  -1.000000 0
  1.000000  -0.125000 0
  0.000000  -0.250000 0
 -1.000000  -0.250000 0
 -0.500000  -0.250000 0
 -0.250000  -0.250000 0
  0.250000  -0.125000 0
 -0.750000  -0.250000 0
 -0.625000  -0.375000 0
 -0.875000  -0.375000 0
 -0.375000  -0.375000 0
 -0.875000  -0.250000 0
 -0.625000  -0.250000 0
 -1.000000  -1.000000 0
 -0.750000  -1.000000 0
 -0.500000  -0.500000 0
 -0.750000  -0.500000 0
 -1.000000  -0.500000 0
 -0.875000  -0.500000 0
 -1.000000  -0.125000 0
 -0.750000  -0.125000 0
  0.250000   0.500000 0
 -0.750000   0.375000 0
 -0.500000   0.375000 0
  0.500000  -0.125000 0
 -0.125000  -0.750000 0
 -0.625000  -0.750000 0
 -0.375000  -0.750000 0
 -0.875000  -0.750000 0
 -0.625000   0.000000 0
 -0.875000   0.000000 0
 -0.375000  -0.625000 0
  0.625000  -0.500000 0
 -0.125000  -0.625000 0
  0.875000  -0.500000 0
 -0.750000  -0.750000 0
 -1.000000  -0.750000 0
 -0.500000  -0.750000 0
 -0.625000  -0.875000 0
 -0.875000  -0.875000 0
  0.000000  -0.750000 0
  0.750000  -0.625000 0
 -0.250000  -0.750000 0
  0.250000  -0.750000 0
  0.500000   0.125000 0
 -0.500000   0.000000 0
 -0.250000   0.000000 0
  0.250000   0.125000 0
 -0.750000   0.000000 0
  1.000000  -0.500000 0
 -0.250000  -0.875000 0
 -1.000000  -0.875000 0
 -0.750000  -0.875000 0
 -0.500000  -0.875000 0
 -0.125000  -0.125000 0
  0.125000   0.000000 0
 -0.875000  -0.125000 0
 -0.375000  -0.125000 0
  0.875000  -0.625000 0
 -0.500000   0.625000 0
 -0.250000   0.625000 0
 -0.875000   0.375000 0
 -1.000000  -0.375000 0
 -0.750000  -0.375000 0
 -0.500000   1.000000 0
 -0.750000   1.000000 0
 -1.000000   1.000000 0
 -1.000000   0.000000 0
  1.000000  -0.750000 0
  0.000000  -0.875000 0
  0.250000  -0.875000 0
  0.500000  -0.875000 0
  0.500000   0.000000 0
 -0.500000  -0.125000 0
  0.000000  -0.125000 0
  1.000000  -0.625000 0
 -0.250000  -1.000000 0
  0.000000  -1.000000 0
 -0.500000  -1.000000 0
  0.250000  -1.000000 0
 -0.125000  -0.250000 0
  0.625000  -0.125000 0
 -0.375000  -0.250000 0
 -0.375000  -0.875000 0
  0.875000  -0.750000 0
 -0.125000  -0.875000 0
  0.125000  -0.875000 0
 -0.875000   0.125000 0
 -0.375000  -0.500000 0
  0.625000  -0.375000 0
 -1.000000  -0.625000 0
  0.125000  -0.375000 0
 -0.250000   0.250000 0
 -0.750000   0.125000 0
 -0.500000   0.125000 0
  0.000000   0.250000 0
 -1.000000   0.125000 0
  0.500000  -0.375000 0
 -0.375000   0.375000 0
 -0.125000   0.375000 0
 -0.875000  -0.625000 0
 -0.625000  -0.625000 0
  0.000000   0.000000 0
 -1.000000   0.500000 0
 -0.750000   0.500000 0
 -0.250000  -0.125000 0
  0.750000   0.000000 0
 -0.625000  -1.000000 0
 -0.375000  -1.000000 0
 -0.875000  -1.000000 0
  0.625000   0.125000 0
 -0.375000   0.000000 0
  0.875000   0.125000 0
 -0.125000   0.000000 0
  0.125000   0.375000 0
 -0.875000   0.250000 0
 -0.625000   0.250000 0
 -0.375000   0.250000 0
 -0.125000  -0.375000 0
  0.875000  -0.250000 0
 -0.500000   0.500000 0
 -0.250000   0.500000 0
 -1.000000   0.375000 0
  0.000000   0.500000 0
 -0.250000   1.000000 0
  0.000000   1.000000 0
  0.000000   0.125000 0
 -1.000000   0.625000 0
 -0.375000   0.625000 0
 -0.125000   0.625000 0
 -1.000000   0.250000 0
 -0.250000   0.375000 0
 -0.125000   0.750000 0
 -0.625000   0.750000 0
 -0.375000   0.750000 0
 -0.500000   0.875000 0
 -0.250000   0.875000 0
 -0.750000   0.875000 0
 -0.875000   0.625000 0
  0.500000   0.375000 0
 -0.500000   0.250000 0
  0.250000   0.375000 0
 -0.750000   0.250000 0
  0.750000  -0.250000 0
 -0.125000   0.500000 0
  0.125000   0.875000 0
 -0.875000   0.750000 0
 -0.125000   0.875000 0
  0.125000   0.625000 0
 -0.875000   0.500000 0
  0.375000   0.625000 0
 -0.625000   0.500000 0
  0.875000   0.000000 0
  0.750000   0.250000 0
 -0.250000   0.125000 0
 -0.125000   1.000000 0
 -0.375000   1.000000 0
 -0.625000   1.000000 0
 -0.250000   0.750000 0
  0.000000   0.750000 0
 -0.375000   0.125000 0
  0.375000   0.250000 0
 -0.625000   0.125000 0
  0.875000  -0.375000 0
  0.000000   0.375000 0
 -1.000000   0.875000 0
  0.250000   0.750000 0
 -0.750000   0.625000 0
 -0.125000   0.250000 0
 -0.125000   0.125000 0
  0.000000   0.875000 0
 -1.000000   0.750000 0
 -0.375000   0.875000 0
 -0.875000   0.875000 0
 -0.625000   0.875000 0
  0.625000  -0.625000 0
 -0.625000  -0.125000 0
  0.375000   0.000000 0
 -0.750000   0.750000 0
  0.500000  -0.750000 0
 -0.500000   0.750000 0
  0.750000  -0.750000 0
  0.875000  -0.875000 0
  0.375000  -0.875000 0
 -0.625000   0.625000 0
  0.625000  -0.875000 0
  0.750000  -1.000000 0
  0.500000  -1.000000 0
  1.000000  -1.000000 0
  1.000000   0.000000 0
  0.625000  -0.750000 0
  0.125000  -0.750000 0
  0.250000  -0.625000 0
  0.500000  -0.625000 0
 -0.375000   0.500000 0
  0.875000  -1.000000 0
  0.125000  -0.125000 0
 -0.875000   1.000000 0
  0.375000  -0.500000 0
CELLS 256 1280
4 125 116 73 191
4 106 108 73 190
4 127 116 143 128
4 126 118 180 190
4 107 180 108 190
4 86 178 72 121
4 127 71 116 191
4 192 203 164 144
4 132 140 115 175
4 167 159 88 175
4 93 152 101 99
4 105 178 79 100
4 97 101 153 99
4 86 80 178 100
4 104 197 142 128
4 157 109 120 146
4 106 75 153 98
4 105 75 71 191
4 107 108 152 99
4 136 195 203 144
4 132 117 140 173
4 106 153 108 99
4 138 110 119 266
4 125 118 142 129
4 103 199 141 129
4 97 110 101 146
4 125 142 116 128
4 95 170 195 144
4 135 119 163 266
4 166 140 198 173
4 93 101 109 146
4 94 102 79 98
4 106 73 75 191
4 132 72 117 121
4 97 153 102 98
4 84 74 70 123
4 168 198 143 173
4 95 195 172 147
4 105 79 75 98
4 86 72 74 123
4 168 143 197 128
4 126 141 118 129
4 138 120 110 146
4 94 172 163 147
4 132 115 72 123
4 105 71 178 121
4 130 70 115 123
4 97 102 110 266
4 104 142 199 129
4 95 172 80 100
4 94 79 172 100
4 84 81 74 208
4 125 73 118 190
4 127 143 117 173
4 136 201 195 147
4 92 170 81 208
4 94 163 102 266
4 95 80 170 208
4 86 74 80 208
4 92 164 170 144
4 166 88 140 175
4 135 163 201 147
4 130 115 159 175
4 127 117 71 121
4 182 221 207 188
4 136 244 201 250
4 270 223 149 274
4 182 207 244 250
4 232 206 112 68
4 210 241 113 68
4 211 284 221 188
4 232 183 206 252
4 230 207 113 188
4 213 77 234 219
4 268 257 223 274
4 211 150 284 218
4 248 222 226 237
4 135 201 184 250
4 185 254 258 189
4 194 112 241 68
4 248 224 150 218
4 194 257 239 228
4 249 222 77 219
4 194 241 257 274
4 248 226 224 262
4 155 227 247 264
4 261 236 255 263
4 214 226 245 237
4 230 206 184 252
4 136 203 244 259
4 214 246 226 262
4 192 216 203 259
4 268 236 257 228
4 154 225 246 262
4 249 260 222 237
4 182 244 258 259
4 215 245 260 237
4 193 239 217 228
4 270 225 223 264
4 248 150 222 219
4 154 247 225 264
4 261 217 236 228
4 156 255 287 263
4 185 258 216 259
4 138 183 120 177
4 194 239 112 151
4 270 149 224 218
4 268 227 236 263
4 270 224 225 262
4 155 287 227 263
4 138 119 183 252
4 230 113 206 68
4 211 234 150 219
4 193 212 239 151
4 157 120 186 177
4 210 113 284 188
4 232 205 183 177
4 182 258 221 189
4 220 186 205 177
4 135 184 119 252
4 268 223 227 264
4 230 184 207 250
4 213 234 254 189
4 210 284 149 218
4 232 112 205 151
4 210 149 241 274
4 211 221 234 189
4 220 205 212 151
4 87 122 187 179
4 269 280 283 265
4 271 280 57 275
4 58 85 122 179
4 133 59 282 56
4 271 131 280 265
4 65 282 288 56
4 192 164 145 286
4 196 60 53 171
4 78 187 66 179
4 65 50 282 76
4 139 83 124 253
4 65 288 64 54
4 233 53 66 171
4 61 64 55 54
4 278 82 285 272
4 92 52 164 286
4 196 53 242 69
4 269 283 59 56
4 58 124 85 253
4 271 57 174 272
4 277 89 161 275
4 158 165 174 148
4 61 52 64 181
4 162 114 60 171
4 63 91 209 69
4 279 242 91 69
4 233 209 53 69
4 87 187 288 54
4 87 283 122 265
4 63 209 83 253
4 65 64 50 181
4 276 285 57 272
4 269 59 161 273
4 78 66 114 171
4 51 145 96 286
4 169 90 160 273
4 58 122 131 265
4 276 57 89 275
4 133 160 59 273
4 162 267 114 49
4 92 81 52 181
4 61 96 52 286
4 167 62 159 176
4 158 174 82 272
4 169 160 62 176
4 133 281 160 176
4 271 174 131 148
4 130 159 281 176
4 277 161 90 273
4 51 96 267 49
4 233 66 85 179
4 61 55 96 49
4 269 161 280 275
4 139 124 165 148
4 133 282 281 76
4 87 288 283 56
4 233 85 209 253
4 84 50 81 181
4 78 114 55 49
4 78 55 187 54
4 84 70 50 76
4 58 131 124 148
4 130 281 70 76
4 38 5 26 46
4 243 26 37 46
4 42 34 7 3
4 33 137 251 9
4 256 1 4 238
4 40 229 5 46
4 111 4 6 238
4 30 41 29 25
4 38 26 29 39
4 213 6 77 238
4 19 37 229 46
4 45 21 35 202
4 196 13 60 200
4 23 8 32 14
4 45 22 21 39
4 23 11 43 31
4 24 11 7 16
4 15 8 41 25
4 20 27 17 14
4 243 13 21 202
4 30 29 22 39
4 40 5 2 31
4 36 18 32 16
4 279 35 242 202
4 19 251 134 9
4 42 7 18 16
4 196 242 13 202
4 15 17 8 14
4 24 7 44 3
4 51 267 137 9
4 23 43 8 25
4 243 37 13 200
4 36 32 27 14
4 33 251 231 28
4 215 260 0 235
4 111 67 4 240
4 249 1 260 235
4 111 231 67 28
4 243 21 26 39
4 40 67 229 28
4 249 77 1 238
4 40 2 67 240
4 24 2 11 31
4 256 10 1 235
4 192 145 216 12
4 256 44 10 3
4 51 137 145 12
4 162 60 134 200
4 47 10 34 3
4 23 32 11 16
4 33 48 137 12
4 162 134 267 9
4 47 0 10 235
4 185 216 48 12
4 38 29 43 25
4 24 44 2 240
4 38 43 5 31
4 256 4 44 240
4 19 229 251 28
4 213 254 6 204
4 185 48 254 204
4 19 134 37 200
4 33 231 48 204
4 111 6 231 204
CELL_TYPES 256
8
8
8
8
8
8
8
8
8
8
8
8
8
8
8
8
8
8
8
8
8
8
8
8
8
8
8
8
8
8
8
8
8
8
8
8
8
8
8
8
8
8
8
8
8
8
8
8
8
8
8
8
8
8
8
8
8
8
8
8
8
8
8
8
8
8
8
8
8
8
8
8
8
8
8
8
8
8
8
8
8
8
8
8
8
8
8
8
8
8
8
8
8
8
8
8
8
8
8
8
8
8
8
8
8
8
8
8
8
8
8
8
8
8
8
8
8
8
8
8
8
8
8
8
8
8
8
8
8
8
8
8
8
8
8
8
8
8
8
8
8
8
8
8
8
8
8
8
8
8
8
8
8
8
8
8
8
8
8
8
8
8
8
8
8
8
8
8
8
8
8
8
8
8
8
8
8
8
8
8
8
8
8
8
8
8
8
8
8
8
8
8
8
8
8
8
8
8
8
8
8
8
8
8
8
8
8
8
8
8
8
8
8
8
8
8
8
8
8
8
8
8
8
8
8
8
8
8
8
8
8
8
8
8
8
8
8
8
8
8
8
8
8
8
8
8
8
8
8
8
8
8
8
8
8
8
POINT_DATA 289
SCALARS scalar_value float 1
LOOKUP_TABLE default
0.0193886
0.0217571
0.0235187
0.0213822
0.0235405
0.024295
0.0251341
0.0215783
0.0224812
0.02833
0.0210135
0.0225255
0.0332885
0.0256991
0.021702
0.0224712
0.021667
0.0217015
0.0208621
0.0264614
0.0209267
0.0250714
0.0245133
0.0225053
0.0225099
0.0232423
0.0247766
0.0209239
0.0261646
0.0239546
0.0239102
0.0234146
0.021697
0.0286268
0.0205189
0.0252929
0.0209091
0.0257855
0.0240856
0.0245788
0.0245637
0.0232172
0.0207488
0.023313
0.0224123
0.0249864
0.0251097
0.0201001
0.0296995
0.0351894
0.0620935
0.0308783
0.0553549
0.0283065
0.0438492
0.0403148
0.0466736
0.0209546
0.0308874
0.0463664
0.0264191
0.0466215
0.0661074
0.0283934
0.0508767
0.0534449
0.0324415
0.0248484
-0.114604
0.0274548
0.0734793
0.0747708
0.0739303
0.0755155
0.0717239
0.0738034
0.0638831
0.0229611
0.0357476
0.0719083
0.0702608
0.0692518
0.0138385
0.0287318
0.0715237
0.0311204
0.0721581
0.0395822
0.0785139
0.0230549
0.0429313
0.0271755
0.0663544
0.0724392
0.0706897
0.0682232
0.0399316
0.0720218
0.0725507
0.0732911
0.0711089
0.072336
0.0714818
0.0809756
0.0800635
0.0732972
0.0741901
0.0745134
0.0744314
0.0716981
0.0712522
0.025073
-0.129026
-0.0945044
0.0319904
0.0753653
0.076639
0.0759147
0.0771846
0.0701368
0.0710627
0.0743333
0.0345631
0.0736277
0.028631
0.0769599
0.0772676
0.0762759
0.0781378
0.0787949
0.0752419
0.0292376
0.0755986
0.0553571
0.0270834
0.0692154
0.0656426
0.0301623
0.0707293
0.0278683
0.0771789
0.0789035
0.0784914
0.0777796
0.0633078
0.0343759
0.0715887
0.0684364
0.0264199
-0.22782
-0.121721
-0.13767
0.0733837
0.0730133
-0.523772
-0.604757
-0.629662
0.0711705
0.0210157
0.0768774
0.0551141
0.035948
0.027328
0.0697578
0.0623483
0.0254528
0.0786737
0.0784591
0.0792541
0.0541796
0.0669783
0.0297803
0.0696133
0.0774502
0.0223182
0.0769886
0.0658015
0.00389356
0.072721
0.0341032
0.0758102
0.0594402
-0.00446405
0.006494
0.0164379
0.0301478
0.00301969
0.038312
-0.0691277
-0.00667644
0.0757341
0.0751815
0.048256
-0.219939
-0.204437
0.066521
0.0258376
0.079639
0.0789261
0.0805129
0.0262433
0.0678282
0.0253922
0.0621384
0.0272039
-0.065018
-0.0501724
-0.0219126
0.0695593
0.0288355
-0.156971
-0.0773477
-0.140546
0.0249449
-0.361204
0.0179054
0.0341614
-0.30699
-0.180705
-0.0524257
-0.0668894
-0.0393783
-0.0841227
-0.352522
-0.252935
-0.408189
-0.254158
-0.486486
-0.302237
0.0255781
-0.0374972
0.0267684
-0.0594203
0.0301715
-0.0278007
0.0203737
-0.397951
-0.130805
0.0233436
-0.216082
0.0235802
-0.184804
0.0255117
0.0253321
0.0300684
-0.228032
-0.455704
-0.572223
-0.177482
0.0211624
0.0231648
0.0273969
0.0107404
0.0293299
0.0272371
-0.510686
0.0221754
-0.287816
0.0132495
0.0349
0.0194869
-0.403436
-0.342983
-0.504718
-0.454951
0.0336941
0.0706606
0.0287028
-0.381242
0.0383279
-0.31042
0.0259478
0.0156791
0.0450944
-0.263254
0.0278391
0.0145094
0.0325304
0
0.0254065
0.0314396
0.0650754
0.0548485
0.0395677
-0.120947
0.0068487
0.0480151
-0.623525
0.0458944
