# vtk DataFile Version 2.0
Unstructured Grid by M++
ASCII
DATASET UNSTRUCTURED_GRID
POINTS 4072 float
  0.812500   0.625000 0
  0.953125   0.609375 0
  0.968750   0.609375 0
  0.875000   0.687500 0
  0.812500   0.937500 0
  0.859375   0.687500 0
  0.796875   0.937500 0
  0.968750   1.000000 0
  0.984375   0.984375 0
  0.968750   0.984375 0
  0.843750   0.656250 0
  0.875000   0.656250 0
  0.812500   0.906250 0
  0.859375   0.640625 0
  0.781250   0.984375 0
  0.843750   0.734375 0
  0.781250   0.968750 0
  0.843750   0.718750 0
  0.765625   0.968750 0
  0.828125   0.718750 0
  0.921875   0.593750 0
  0.859375   0.843750 0
  0.765625   1.000000 0
  0.828125   0.750000 0
  0.875000   0.796875 0
  0.890625   0.781250 0
  0.875000   0.781250 0
  0.921875   0.609375 0
  0.859375   0.859375 0
  0.984375   0.968750 0
  1.000000   0.968750 0
  1.000000   0.953125 0
  0.859375   0.734375 0
  0.796875   0.984375 0
  0.875000   0.734375 0
  0.812500   0.984375 0
  0.906250   0.953125 0
  0.968750   0.703125 0
  0.796875   0.750000 0
  0.812500   0.812500 0
  0.828125   0.796875 0
  0.781250   0.843750 0
  0.843750   0.593750 0
  0.953125   0.937500 0
  0.890625   0.625000 0
  0.828125   0.875000 0
  0.906250   0.625000 0
  0.843750   0.875000 0
  0.890625   0.609375 0
  0.828125   0.859375 0
  0.906250   0.609375 0
  0.843750   0.859375 0
  0.906250   0.593750 0
  0.843750   0.843750 0
  0.843750   0.765625 0
  0.859375   0.750000 0
  0.796875   1.000000 0
  0.937500   0.609375 0
  0.875000   0.859375 0
  0.765625   0.515625 0
  0.843750   0.640625 0
  0.843750   0.578125 0
  0.781250   0.828125 0
  0.843750   0.515625 0
  0.781250   0.765625 0
  1.000000   0.687500 0
  0.937500   0.937500 0
  0.828125   0.593750 0
  0.765625   0.843750 0
  0.828125   0.531250 0
  0.765625   0.781250 0
  0.765625   0.984375 0
  0.828125   0.734375 0
  0.812500   0.734375 0
  0.765625   0.765625 0
  0.781250   0.750000 0
  1.000000   0.656250 0
  0.937500   0.906250 0
  0.765625   0.750000 0
  0.968750   0.578125 0
  0.953125   0.593750 0
  0.953125   0.578125 0
  0.937500   0.593750 0
  0.875000   0.843750 0
  0.812500   0.796875 0
  0.875000   0.546875 0
  0.984375   0.953125 0
  0.984375   0.937500 0
  0.765625   0.562500 0
  0.937500   0.656250 0
  0.875000   0.906250 0
  0.765625   0.531250 0
  0.937500   0.625000 0
  0.875000   0.875000 0
  0.937500   0.859375 0
  1.000000   0.609375 0
  0.828125   0.687500 0
  0.765625   0.937500 0
  1.000000   0.781250 0
  0.812500   0.671875 0
  0.984375   0.765625 0
  0.828125   0.656250 0
  1.000000   0.750000 0
  0.937500   1.000000 0
  0.781250   0.515625 0
  0.953125   0.671875 0
  0.890625   0.921875 0
  0.781250   0.578125 0
  0.953125   0.984375 0
  0.984375   0.640625 0
  0.921875   0.890625 0
  0.968750   0.625000 0
  0.906250   0.875000 0
  0.812500   0.765625 0
  0.984375   0.859375 0
  1.000000   0.843750 0
  0.968750   0.859375 0
  0.843750   0.703125 0
  0.781250   0.953125 0
  0.843750   0.750000 0
  0.781250   1.000000 0
  0.843750   0.687500 0
  0.781250   0.937500 0
  0.828125   0.765625 0
  1.000000   0.859375 0
  0.828125   0.703125 0
  0.765625   0.953125 0
  0.968750   0.968750 0
  0.968750   0.953125 0
  0.796875   0.781250 0
  0.859375   0.531250 0
  0.968750   0.937500 0
  0.953125   0.968750 0
  0.781250   0.796875 0
  0.843750   0.546875 0
  0.953125   0.953125 0
  0.781250   0.812500 0
  0.953125   0.906250 0
  0.859375   0.781250 0
  0.859375   0.703125 0
  0.796875   0.953125 0
  0.859375   0.765625 0
  1.000000   0.734375 0
  0.937500   0.984375 0
  0.828125   0.578125 0
  0.765625   0.828125 0
  1.000000   0.796875 0
  0.828125   0.640625 0
  0.984375   0.734375 0
  0.921875   0.984375 0
  0.812500   0.640625 0
  0.890625   0.953125 0
  0.953125   0.703125 0
  0.796875   0.687500 0
  0.968750   0.781250 0
  0.968750   0.750000 0
  0.906250   1.000000 0
  0.953125   0.765625 0
  0.812500   0.718750 0
  0.843750   0.984375 0
  0.906250   0.734375 0
  0.921875   0.625000 0
  0.859375   0.875000 0
  0.921875   0.687500 0
  0.859375   0.937500 0
  0.968750   0.796875 0
  0.796875   0.703125 0
  0.937500   0.671875 0
  0.984375   0.796875 0
  0.812500   0.703125 0
  0.765625   0.687500 0
  0.937500   0.843750 0
  1.000000   0.593750 0
  0.937500   0.781250 0
  1.000000   0.531250 0
  0.812500   0.781250 0
  0.984375   0.875000 0
  0.843750   1.000000 0
  0.906250   0.750000 0
  0.968750   0.500000 0
  0.968750   0.718750 0
  0.906250   0.968750 0
  0.796875   0.625000 0
  0.859375   1.000000 0
  0.921875   0.750000 0
  0.968750   0.765625 0
  0.796875   0.609375 0
  0.859375   0.984375 0
  0.921875   0.734375 0
  1.000000   0.625000 0
  0.937500   0.875000 0
  1.000000   0.562500 0
  0.937500   0.812500 0
  0.875000   0.984375 0
  0.937500   0.734375 0
  0.906250   0.703125 0
  0.843750   0.953125 0
  0.906250   0.687500 0
  0.843750   0.937500 0
  0.937500   0.765625 0
  0.890625   0.718750 0
  0.828125   0.968750 0
  0.890625   0.703125 0
  0.828125   0.953125 0
  0.921875   0.781250 0
  0.906250   0.796875 0
  0.921875   0.718750 0
  0.859375   0.968750 0
  0.921875   0.703125 0
  0.859375   0.953125 0
  0.765625   0.546875 0
  0.937500   0.640625 0
  0.875000   0.890625 0
  0.937500   0.703125 0
  0.875000   0.953125 0
  0.765625   0.593750 0
  0.937500   0.687500 0
  0.875000   0.937500 0
  0.890625   0.937500 0
  0.953125   0.687500 0
  0.906250   0.718750 0
  0.843750   0.968750 0
  0.937500   0.796875 0
  0.828125   0.921875 0
  0.890625   0.671875 0
  0.984375   0.750000 0
  0.921875   1.000000 0
  0.812500   0.593750 0
  0.875000   0.968750 0
  0.937500   0.718750 0
  0.890625   1.000000 0
  0.953125   0.750000 0
  0.968750   0.671875 0
  0.906250   0.921875 0
  0.968750   0.734375 0
  0.906250   0.984375 0
  0.796875   0.578125 0
  0.984375   0.671875 0
  0.921875   0.921875 0
  0.812500   0.515625 0
  0.812500   0.578125 0
  0.765625   0.578125 0
  0.843750   0.906250 0
  0.906250   0.656250 0
  0.890625   0.750000 0
  0.828125   1.000000 0
  0.781250   0.593750 0
  0.984375   0.546875 0
  0.921875   0.796875 0
  0.921875   0.812500 0
  0.859375   0.656250 0
  0.859375   0.593750 0
  0.796875   0.843750 0
  0.859375   0.578125 0
  0.796875   0.828125 0
  0.921875   0.953125 0
  0.984375   0.703125 0
  0.984375   0.625000 0
  0.921875   0.875000 0
  0.875000   0.640625 0
  0.812500   0.890625 0
  0.875000   0.578125 0
  0.812500   0.828125 0
  0.765625   0.859375 0
  0.828125   0.609375 0
  0.937500   0.953125 0
  1.000000   0.703125 0
  0.921875   0.906250 0
  0.984375   0.656250 0
  0.921875   0.968750 0
  0.984375   0.718750 0
  1.000000   0.765625 0
  0.890625   0.984375 0
  0.953125   0.734375 0
  0.953125   0.656250 0
  0.890625   0.906250 0
  0.953125   0.718750 0
  0.890625   0.968750 0
  0.781250   0.562500 0
  0.796875   0.796875 0
  0.968750   0.640625 0
  0.906250   0.890625 0
  0.953125   0.796875 0
  0.953125   0.859375 0
  0.781250   0.703125 0
  0.984375   0.781250 0
  0.875000   1.000000 0
  0.937500   0.750000 0
  0.906250   0.937500 0
  0.968750   0.687500 0
  0.843750   0.625000 0
  0.781250   0.875000 0
  0.765625   0.796875 0
  0.937500   0.890625 0
  1.000000   0.640625 0
  0.781250   0.781250 0
  0.906250   0.906250 0
  0.968750   0.656250 0
  0.796875   0.765625 0
  1.000000   0.718750 0
  0.937500   0.968750 0
  0.828125   0.562500 0
  0.765625   0.812500 0
  0.828125   0.625000 0
  0.484375   0.750000 0
  0.421875   1.000000 0
  0.000000   0.218750 0
  0.453125   0.640625 0
  0.281250   0.546875 0
  0.312500   0.640625 0
  0.406250   0.984375 0
  0.468750   0.734375 0
  0.328125   0.656250 0
  0.390625   0.828125 0
  0.453125   0.578125 0
  0.437500   0.875000 0
  0.015625   0.093750 0
  0.312500   0.531250 0
  0.406250   0.937500 0
  0.343750   0.562500 0
  0.281250   0.812500 0
  0.453125   0.984375 0
  0.359375   0.625000 0
  0.296875   0.875000 0
  0.468750   0.796875 0
  0.046875   0.015625 0
  0.437500   0.656250 0
  0.312500   0.578125 0
  0.421875   0.921875 0
  0.000000   0.140625 0
  0.484375   0.671875 0
  0.265625   0.734375 0
  0.468750   0.984375 0
  0.046875   0.203125 0
  0.406250   0.625000 0
  0.390625   0.609375 0
  0.375000   0.625000 0
  0.265625   0.562500 0
  0.484375   0.812500 0
  0.062500   0.031250 0
  0.484375   0.984375 0
  0.062500   0.203125 0
  0.312500   0.890625 0
  0.375000   0.640625 0
  0.375000   0.671875 0
  0.390625   0.687500 0
  0.484375   0.843750 0
  0.390625   0.500000 0
  0.328125   0.687500 0
  0.328125   0.765625 0
  0.390625   0.515625 0
  0.437500   0.796875 0
  0.484375   0.531250 0
  0.468750   0.968750 0
  0.046875   0.187500 0
  0.453125   0.843750 0
  0.453125   0.812500 0
  0.281250   0.718750 0
  0.468750   0.859375 0
  0.265625   0.984375 0
  0.375000   0.765625 0
  0.296875   0.562500 0
  0.484375   0.781250 0
  0.062500   0.000000 0
  0.453125   1.000000 0
  0.031250   0.218750 0
  0.453125   0.546875 0
  0.312500   0.703125 0
  0.328125   0.718750 0
  0.296875   0.656250 0
  0.281250   0.640625 0
  0.265625   0.656250 0
  0.281250   0.671875 0
  0.484375   0.890625 0
  0.062500   0.109375 0
  0.296875   0.687500 0
  0.296875   0.625000 0
  0.265625   0.703125 0
  0.265625   0.687500 0
  0.265625   0.625000 0
  0.953125   0.046875 0
  0.484375   0.875000 0
  0.484375   0.921875 0
  0.062500   0.140625 0
  0.453125   0.921875 0
  0.031250   0.140625 0
  0.968750   0.234375 0
  0.171875   0.671875 0
  0.500000   0.796875 0
  0.078125   0.015625 0
  0.218750   0.718750 0
  0.062500   0.828125 0
  0.734375   0.250000 0
  0.906250   0.140625 0
  0.109375   0.578125 0
  0.781250   0.015625 0
  0.718750   0.187500 0
  0.031250   0.828125 0
  0.718750   0.234375 0
  0.890625   0.125000 0
  0.093750   0.562500 0
  0.734375   0.359375 0
  0.859375   0.546875 0
  0.062500   0.984375 0
  0.750000   0.406250 0
  0.718750   0.343750 0
  0.250000   0.750000 0
  0.234375   0.734375 0
  0.046875   0.578125 0
  0.734375   0.000000 0
  0.828125   0.125000 0
  0.031250   0.562500 0
[...]
POINT_DATA 4072
SCALARS scalar_value float 1
LOOKUP_TABLE default
0.830466
3.85363
1.13105
-4.27592
-2.26423
0.917108
-15.7681
0
-1.54927
-2.1386
3.13672
-1.92493
-2.42036
3.08619
-4.57714
-0.0470857
-6.56734
0.0302373
-0.945616
-0.340225
1.33877
-0.803138
0
-1.0705
1.00478
0.220505
2.39311
1.46451
-0.211284
-0.909911
0.786009
2.98015
1.66643
1.68811
-3.04144
2.04093
1.05673
1.54808
-2.2005
0.111399
3.04902
0.96998
-0.834128
-3.74561
-1.18453
-1.25009
4.70832
-2.73155
-1.17928
-1.52269
5.96781
-1.66685
6.60066
0.600737
-1.98018
3.49975
0
-2.18332
-0.554926
-0.697215
1.11479
0.52252
-1.14736
-1.25522
3.57747
-0.22302
-6.20144
2.23553
-3.99418
1.12208
7.43353
-1.17182
1.41128
-0.743451
7.44055
0.210132
2.42357
-2.78263
8.88712
0.573313
0.902524
-0.926408
-2.82227
-0.237164
-1.50122
5.33708
1.11924
2.28411
5.2096
-3.15831
-1.81834
3.54238
-3.6339
-1.43563
2.05576
-0.0219288
0.409939
-0.533419
2.264
-1.62269
2.30391
-1.27192
4.44847
0
-4.58966
2.5282
-1.03899
-6.85099
0.290889
1.64123
4.22044
2.40283
3.30468
-1.08423
2.12918
2.35031
1.05122
0.440469
0.567514
0.168051
0
-0.394323
-8.05079
-2.49104
2.48642
-0.966216
-8.63826
-4.29237
-2.78981
-0.138455
-2.2706
-0.704409
-3.03759
5.2509
-0.441946
-5.18623
1.86405
-0.597487
-0.120916
-0.231411
-3.82735
2.7448
1.05656
1.16206
2.04487
-7.05806
1.06454
0.905245
1.71014
0.838328
-0.0361247
3.88454
2.1419
-1.87888
-1.0216
1.02419
0
1.12386
2.28664
-0.847391
5.50423
2.08019
-1.43578
4.82352
0.497034
0.946733
-1.22524
-4.23869
2.86292
0.740331
9.90952
0.784366
0.0265431
-0.916823
-0.494725
-0.609393
2.37047
0
5.409
0.97248
2.73412
1.02178
0.403176
0
1.41178
-0.670315
0.0924499
-1.84669
1.89894
-1.81419
2.90308
0.763302
1.04021
0.54274
-5.19886
8.08176
-2.34654
7.90838
-0.137837
-2.91636
-1.30987
-0.258389
-0.828276
-3.87781
0.372186
4.47098
3.28668
-1.16063
5.18368
-0.11155
5.6943
-3.90754
0.35457
-3.24188
0.651179
8.98113
-4.87783
2.18864
2.98287
2.07681
6.64654
-3.86808
2.61889
-0.3902
-0.596734
2.3808
0
-4.88941
0.509782
-3.0388
0
3.02135
1.2939
-3.18979
2.47262
0.483516
-0.260433
0.782704
-3.53296
-3.3326
-5.82458
7.7395
1.91238
5.15214
-0.00578358
0
-6.68646
3.09715
0.386976
5.47636
2.84733
-2.40354
-3.95193
-2.48293
-3.90439
0.373391
0.265477
0.646921
2.00358
-3.46896
-0.556197
-1.7514
-0.134728
-5.63051
1.38277
-5.81941
0.300249
0.605805
0.490091
2.94179
-0.0491366
4.95207
-0.702994
4.85997
2.8709
-2.29676
3.88473
1.04681
-4.90279
1.07899
2.40355
0.813219
-2.95732
-1.60733
-4.89592
2.93938
0
-5.25717
-1.28628
0.734627
-1.98141
4.49565
1.77145
1.54256
0.0544085
4.8149
-1.69588
1.93113
-0.807669
-0.118047
-1.34493
0.442895
-6.64667
1.77306
-3.06395
0
1.00544
-1.82277
-5.87827
2.87671
-1.02657
-3.20666
4.65622
0.895952
2.0212
6.1264
0.231815
-1.50907
-0.353518
-1.29049
2.67982
-1.49263
2.44292
4.25631
-1.14459
-2.91566
-0.777807
-3.21387
2.58992
1.07245
3.29472
-1.11878
2.7465
-0.66255
-3.48739
5.34356
8.50525
2.51142
-0.408772
-1.16065
1.27699
-1.68821
1.56369
5.12411
-2.35489
3.51735
-2.70218
-7.87928
1.73024
0.659831
10.6138
1.00814
1.71946
0.875904
-0.72656
2.74837
1.9827
-0.161761
1.86537
-1.27489
-0.132667
-8.45885
3.46894
-1.2836
0
-0.825251
3.27602
-1.6576
2.08273
5.30776
0.600829
0.63411
2.40771
-1.17937
-0.862118
-1.46139
-2.10948
3.02334
4.04912
-9.38969
1.75553
-0.489817
3.66374
-1.60972
2.936
-1.47205
1.77243
-0.993764
-0.891828
-0.480869
5.05953
1.34528
3.70177
2.45916
0.721896
-2.93883
1.32823
-1.2398
-2.28669
-2.26312
1.31868
4.65115
-1.62096
0.513822
3.57095
-2.97727
0.416502
0.427966
-0.791438
3.62472
2.13211
-0.981736
-3.43768
-3.53563
20.5349
-0.257961
-0.78848
0.0155301
-3.21953
-2.11348
1.99775
0.857313
4.03712
2.20195
-5.64316
-0.36638
4.74919
3.62567
0.854919
-2.66001
-1.57752
-1.34796
-1.52568
1.72703
-3.0044
-0.960764
-2.20506
-3.65403
-5.6719
-0.40343
-0.862259
0.724847
-1.80268
0.543287
-3.90158
3.4453
1.49269
1.549
-1.78223
-0.199915
-1.16753
2.16262
1.11196
0.95524
0.289356
-1.52524
-1.54775
0.153361
-2.12131
0.711471
0.430667
-1.98867
1.15226
1.52844
0
0.729898
-0.888133
-4.22688
-2.34785
-2.03443
0.866466
-4.85687
-1.24329
0.819826
4.09827
-2.92331
-1.257
1.54116
2.37776
-0.60058
1.29449
0
0.910285
-0.850197
3.15059
-1.08765
-6.22472
-2.44181
0.819459
-3.04298
-0.355705
1.29245
-0.74954
-1.83787
-1.08844
-0.12874
-2.30581
3.40239
2.15643
0.367348
2.09717
1.96004
-2.3164
-0.250396
-1.63599
0.0128983
-3.27711
3.05066
-2.36065
1.96817
-2.46823
-0.439864
-1.14586
-0.15444
1.55877
0.483689
-2.14695
3.08415
3.26308
1.96589
-3.89547
-4.31757
4.82077
1.20437
-1.54631
2.42473
-0.379077
-2.06478
-2.36986
1.26573
-1.74138
-3.24554
-0.762997
7.86416
4.52615
10.3965
0.235855
6.86633
-3.42845
0.42938
0.247183
4.27989
1.16476
-2.21278
-0.901202
1.84188
-6.25205
1.15378
-0.338558
-2.13902
3.10705
0.781666
2.11691
2.20798
4.57511
1.26174
2.15107
2.82456
0.0728377
2.83178
-3.54984
-3.2703
-5.66445
-0.294129
-2.26552
-1.12905
-0.330092
1.05508
1.99863
-2.17594
-3.95119
2.1147
-1.5332
-0.908255
0.660157
0.636148
-3.79705
-0.143085
1.44947
-6.20565
-4.0627
3.9711
-4.56397
-1.75013
-0.271134
-1.94469
-2.17024
1.09242
-4.10442
-2.55683
0.358966
2.34865
-0.59085
0.561326
0.189281
-0.060798
-1.22296
1.1168
-2.14833
-6.48572
-4.29409
-0.195611
-0.55786
0.286671
0.540251
-0.450032
-1.97688
-0.899906
-0.55524
-6.54918
-2.22575
4.59589
-0.543391
1.64374
-1.75538
-0.329412
2.13618
0.349369
2.42609
0.465928
-0.126568
0.502595
-1.00649
1.1842
7.70486
-2.82404
-0.832668
0.271033
1.16388
-1.43147
-5.21354
5.74931
-1.53851
-6.79804
-3.03308
-1.06979
2.46288
0
0.672807
-2.78014
0.955166
2.59485
-0.275781
14.4197
0.0573701
-1.45552
-0.658008
5.23425
-3.75042
-0.411387
-4.81721
-2.10567
-0.0215884
1.71913
-2.2203
5.7343
4.74844
-1.09234
5.5106
-1.75647
0.893622
1.91305
1.08689
1.64304
6.73186
0
1.62847
15.0513
0.306837
-2.22367
-4.23572
4.38907
-3.68292
1.64992
1.63649
-1.37337
-0.0528351
1.60107
-1.17319
0.390937
-1.628
-1.40997
-1.073
0.777831
4.22659
2.50526
4.03215
0.0442554
4.60906
-4.16425
-0.578077
4.30633
-1.67881
0
0
0.803906
0.929229
0.109147
3.28829
3.95404
0.971354
2.87786
0.385165
-6.90168
0.746426
5.45592
1.91753
-0.553146
0.259348
-1.73173
3.12937
3.50376
-1.13326
0.493248
2.37647
0.0428052
-5.57655
0.104467
-4.46224
-0.744177
12.1889
2.45494
-2.36029
-0.554983
-1.29457
1.67841
-1.62222
5.10674
0.824375
-3.05057
9.63612
0.730716
-2.97371
-0.182911
9.91607
-0.754186
-0.900308
4.17893
-4.28705
-0.273772
-1.64639
-8.36162
-0.924413
-0.422171
0.963435
0.0603492
2.37777
3.84768
7.11535
5.50682
-0.383859
-3.8419
2.49189
4.54511
1.72155
0.262996
4.53938
-0.131988
15.472
-2.34939
-3.60732
4.33122
3.02866
-0.0406879
7.01232
2.62289
-0.236459
-4.50832
-15.7964
0.622779
-3.17024
7.57043
-2.27881
2.42248
-5.66745
4.95932
5.23285
3.83622
-0.302432
-4.82005
8.54166
2.57444
0.0881757
1.33137
2.98288
-0.529841
11.8105
0.113449
-7.42795
2.01299
-5.21114
1.29474
12.4802
6.12233
-12.397
-2.78268
4.15959
-1.50757
-4.08586
-24.9373
0.176662
-4.99371
-0.861632
-4.97468
-2.74483
3.90334
-0.244479
8.50171
-1.82683
-1.50053
1.85444
5.90739
-1.77564
-11.199
-5.2656
3.9678
0.262938
-4.00164
4.13461
0.982639
1.82265
6.15954
3.37485
3.30532
4.9807
0.101209
2.01708
3.27799
3.8271
-1.89215
8.37095
1.09847
-1.22965
9.17943
-2.77398
3.43121
11.8998
3.91695
4.88617
-4.45469
-3.31402
-0.407875
9.70388
6.40784
10.3125
6.49196
11.7737
-7.94388
9.67355
-1.53714
-0.924347
0.895164
2.48697
3.4609
2.2065
7.33924
5.51428
-4.00677
0
-4.46784
4.98118
1.82657
-13.2699
3.92289
-0.482414
4.25026
5.90782
-10.3978
1.96408
-3.1523
0.891314
5.18126
-2.68236
0.550635
1.29092
-9.37447
-0.429906
6.64714
-5.20488
2.00001
-10.8564
8.64766
1.2062
7.2244
4.30567
1.17899
1.90233
0.947398
2.15688
1.97451
3.19624
1.32922
-10.8652
13.2567
-3.63244
-1.15665
-2.1658
-4.05602
13.4363
-6.66941
4.70525
5.32256
-0.635405
0.714303
0.257025
-2.72665
4.27235
-13.7136
-2.77877
2.39575
0.569288
5.20365
-1.00337
5.33779
-0.923476
2.98606
2.35562
5.27837
3.849
6.21741
16.0062
-5.67613
5.41723
4.03978
-2.11104
0.71244
-0.501699
1.23732
-3.39044
0
1.99367
3.76042
5.08811
4.13977
2.20706
-5.20767
8.29404
4.44619
-3.09281
3.27545
3.98773
-3.45828
-1.63159
6.01058
8.69561
-6.47782
1.84742
1.77343
-1.65556
1.94596
5.24822
-9.59281
-2.43568
4.59586
-1.44041
2.80035
-0.914275
-0.64818
15.0907
3.11097
-0.00462931
6.45207
1.33599
-13.5187
-6.68256
-0.512147
-2.41726
2.0882
0.371389
3.01094
3.13088
-0.202803
-1.26863
-3.53936
-2.23673
-11.8751
6.09762
0.569568
4.98514
-1.08129
1.38626
-0.297679
11.7754
5.08673
6.13488
14.0508
0.841909
4.07846
-16.3759
3.29893
-2.25235
-1.09773
-10.81
0.0374869
0.648545
-4.99073
0
4.7621
-0.469129
-5.72923
0.382637
19.1396
-0.0408816
-4.08036
-1.85907
2.98511
1.04293
4.02007
-2.4884
-12.8742
9.10931
-2.82138
-0.0266753
0.352609
-10.8684
4.4542
-9.5107
8.34864
6.29407
-0.0969562
-0.931273
1.94945
2.05645
0.640751
-2.13882
-4.54672
-1.01195
-1.25437
4.67187
0.601627
1.15197
7.65237
1.19131
5.09124
-0.703691
1.36189
-1.65266
2.24362
0.00464298
-0.607577
-0.789741
0.970616
-2.67284
-3.06827
1.65461
-4.02703
-0.793302
3.68098
-2.04513
4.08476
-1.60177
0.456284
-0.844328
0.0221093
1.05763
-1.01612
-1.96293
1.38817
1.54259
-0.999561
-2.81536
-0.210177
1.99275
4.28283
0.900619
1.06597
-0.121312
10.2555
4.23763
-0.770665
-0.692351
-0.196693
-1.18962
-0.134713
-2.03908
0.732931
-2.06982
-2.52243
-1.66135
0.58074
-1.33025
1.35426
-1.83961
0.330152
-1.13736
2.47234
-4.00436
-1.71615
-0.333342
-1.82904
5.37341
0.733532
-0.415641
-1.0046
1.08785
-1.75358
3.41802
1.29826
-0.941142
-2.24438
-3.94708
-1.7698
-0.270318
0.618158
0.595964
1.00274
10.5407
2.30637
-2.38538
-1.11751
-1.33043
3.05319
-2.81005
1.00464
4.23484
4.37551
1.02808
0.764941
-0.603889
-3.81689
-2.05107
2.85902
1.38609
-2.72101
-1.75124
-2.59326
1.29924
2.82805
-3.58016
0.627734
8.01205
-0.0313685
1.34532
4.41358
-1.10358
-0.738871
2.83152
-0.712477
-2.76543
-0.804292
-0.379937
-7.7704
-2.24886
-3.40643
1.55504
5.06789
-0.184029
0.907539
-4.91415
-0.0424494
-2.05745
1.20404
-0.969412
0.584961
0.355956
-1.61473
-5.26257
-1.6867
-0.999591
6.02092
0.237514
-7.1912
-0.600469
0.984657
-0.797237
3.32011
0.928607
0.766805
0.652946
1.50213
-1.04774
2.45151
-0.137112
0.197718
-0.942715
-0.430023
1.64699
-0.111583
1.71018
-1.0329
-6.43908
-2.25117
-1.6269
1.26266
-2.67688
-1.05954
-1.79016
0.388035
10.1876
-0.193009
0.505432
-2.36496
-0.857376
-1.47276
1.467
8.83441
-0.834807
2.89127
-2.42619
4.08281
2.09243
0.693065
-7.00945
-0.827927
-2.38253
0.399528
-1.17385
3.4557
0.479716
1.10594
-0.0544911
-0.475951
-0.365444
0.657837
0.923731
-2.25841
1.07885
-5.57568
-0.908759
-0.955173
0.294158
0.899988
1.53705
1.6613
0.42633
0.846751
0.719678
-0.809842
1.14914
0.579251
-1.13901
1.43616
-1.73344
0.202706
7.27248
0.483253
-0.0465534
-0.784014
-2.49832
-1.14495
0.815935
0.807423
-0.420258
-1.34692
0.617296
-0.168812
2.69272
0.816565
0.802918
0
-1.44105
-0.940977
0.25523
-4.53705
-0.177867
7.06865
-4.32342
0.184486
-4.12144
0.21663
-4.51909
0.54688
0.673826
0.33499
-0.161471
-0.719753
1.49632
1.50559
5.38132
-2.23044
2.13997
0.2402
-0.276639
0.0283797
1.61276
2.32182
-0.657841
-1.7475
7.38303
1.00971
-1.65324
4.89415
0.624763
1.03888
2.72741
3.23037
-4.36566
-1.31378
-0.854869
0.814124
-5.62404
0.626903
6.26194
1.45661
-0.133927
1.51334
-0.973757
1.63258
-2.24412
2.60358
5.70925
1.62323
-2.59243
-4.98871
4.16892
-0.432343
0.144714
-0.622186
0.166959
-0.638425
-5.66457
4.65078
-0.711066
-0.535384
4.80222
4.11027
-3.1049
3.68701
-1.75456
-4.70866
2.65625
-1.00865
3.15692
-3.76068
1.42957
-0.368006
-0.599624
1.77232
-1.20539
1.45074
-5.94624
1.70801
2.06521
-0.871124
1.3061
0.912644
-2.40697
2.38008
-0.773698
2.49656
-0.813731
-1.5935
-6.34039
-1.87771
-2.72082
0.205474
0.887041
0.518342
2.39345
-4.89949
0.5888
-5.57179
-3.33221
2.88824
-2.17315
-1.79547
2.75835
0.83495
7.38678
1.01753
-3.01757
-3.1128
3.41252
9.81697
-1.51084
0
0.415312
-5.33209
0.403953
-1.77668
-1.13464
4.66646
-1.59681
-2.44356
0.21982
0.783419
2.84182
0
-1.47933
-0.911311
-1.87717
-1.82406
-0.504584
1.92834
1.35273
2.30835
5.46686
-2.63534
-0.481279
-0.159072
4.0173
1.57121
2.87963
1.81936
1.30329
0
0.955952
-0.0399965
2.35455
0.871996
-0.742357
5.11432
0.736157
-0.376054
1.50002
1.54574
1.14896
6.38236
-2.64892
-1.61013
-1.89017
5.28146
-0.08101
-1.87001
-1.2577
-5.24904
-2.63815
-6.01464
0.858468
-2.84132
-2.51578
-1.12306
1.73878
1.02255
-2.02961
-1.6738
-1.01202
0.0794466
0.0928175
-3.92896
8.34868
-0.856854
1.7472
-1.4764
1.46894
-0.557814
0.963072
-8.17042
0.656702
3.09436
0.138782
-2.93114
0
0.432177
-1.94769
-0.0312968
-1.06183
1.84867
1.58986
-4.27148
-1.25638
0.568742
3.60224
0
-0.576212
-0.443982
0
0.53552
1.11169
0.820777
-1.03197
0.0201725
0
-1.97836
6.78481
-2.65261
-3.48167
-0.505181
0.144966
-3.03734
1.14682
-3.21328
0
-2.90787
0.470572
-1.09578
-2.9041
-2.66414
-3.63448
1.44036
5.16619
-0.713498
-2.72721
-0.749903
-0.579599
-0.497544
-0.190397
-0.387318
-3.01036
0.56082
-0.936236
0.21465
-0.0752551
-0.239159
0.231351
3.96022
2.1509
0.858259
-0.131022
1.3882
-0.942915
2.25687
-0.299003
0.0732982
-4.74895
-4.42558
-0.19199
3.19375
2.62184
-2.75942
0.124514
0.916457
-7.24266
-0.802803
1.3752
1.46962
1.83753
1.45972
-2.85329
0.97131
0.721974
-5.44397
-1.7444
3.13668
-1.60301
1.1104
-1.24084
6.35305
2.64458
0.802406
0.0283555
-6.11612
-1.88974
0.797419
2.30165
3.24618
8.81292
11.8498
-0.49244
-2.73038
0.327024
1.82064
10.291
2.4403
1.25288
-1.92326
3.64332
-1.06598
-3.16413
-7.8678
-3.12802
-2.01992
0.854502
-0.927888
0.180732
-0.0580796
-0.867894
0.388186
3.45073
-0.449655
0.665715
-1.78768
-4.40343
-0.343488
0.322803
6.11638
4.85048
-0.687833
1.40315
-1.64148
0.435461
-1.02226
-0.697161
-1.15276
1.1381
0.41974
-2.98078
-2.91606
0.403219
0.942872
1.57451
-3.69502
0
-1.05831
-1.51164
-0.786744
1.1548
-0.852831
-1.18806
-0.34942
0.221425
-2.80126
-1.68632
-3.00032
4.08905
-4.38616
-1.87271
0.740146
0.033232
-0.853283
1.42973
0.022793
-2.49168
-1.07035
-2.15157
1.78923
-3.01347
-0.768817
-2.62185
-1.04744
0.0205326
2.54642
1.23671
6.57556
1.83797
-0.899358
0.237475
-3.17951
0.693647
2.04741
1.72187
-2.06302
1.79604
0.00443561
1.05205
-2.20476
0.776899
-0.862088
-1.01195
2.36373
-2.31448
0
0.116114
0.283311
1.44657
2.29514
10.0648
-1.26402
-3.96966
0.87185
-1.8888
3.56941
0.93798
-0.387905
2.01106
10.3893
4.95723
0.196122
-0.356579
1.55975
-6.79424
0.883228
4.50778
-7.28234
-3.33606
-0.292357
1.11538
3.52971
2.08751
1.48155
-4.99466
0.136648
-0.582064
9.79708
2.9867
0.289756
-5.19169
3.13437
-0.318948
-1.00455
-1.88388
-1.73292
3.26786
0.719502
3.83931
-1.12658
3.62588
-3.32812
2.23114
0
-2.47332
2.88141
1.6307
-1.23734
2.58889
0.721486
1.09575
0.739345
-5.13197
5.27453
4.84005
-1.00793
-4.20264
2.85868
-1.16977
-1.53263
5.02982
3.4888
0.8291
-1.10439
-4.31462
1.92735
7.48738
13.4959
-1.3073
-1.86915
-2.05654
0.283019
-0.610733
-2.49529
1.61465
-0.990294
6.28406
-1.97037
8.07286
0.914725
7.42893
1.55623
-0.135536
0.825834
0.266733
-2.48725
-0.967146
-0.854158
3.79276
-3.7063
-2.27813
0
2.66197
-0.0012954
0.574463
-1.36271
-0.861859
-2.21029
3.87025
2.72112
2.95496
-2.17576
-2.43655
0.082624
-5.19696
2.22843
3.44592
-1.0323
0.8594
-1.14653
2.90441
8.37873
0.586873
1.13377
4.46791
-0.315571
7.141
2.5441
-0.637069
8.35756
-3.10168
-2.29926
1.35109
-0.746376
3.94387
-4.21525
0.927903
-0.187683
-0.586319
-2.31518
0
-1.70528
4.2265
1.39113
1.06575
2.47256
4.00488
-1.86253
1.0207
0.401291
7.24258
-0.457542
-0.133719
2.26908
1.6526
0
0.164594
-3.44616
-0.654264
1.53785
-0.499084
3.00504
3.48355
-0.814812
1.83249
1.53511
1.93754
1.7714
-2.5436
-0.243511
-1.19984
0.338401
-2.17789
17.6266
0.298676
0.0568275
-1.66777
0.364681
0.950522
3.59313
-1.83485
-0.914731
-1.2081
2.60811
-1.60189
-0.995756
1.01799
11.0716
-3.0087
2.31374
7.795
1.1144
-1.03777
1.72194
3.54262
-7
-1.55914
-0.0584846
-0.188672
9.12965
-6.22346
-1.27359
1.10367
-0.232051
1.10985
0.98486
1.23301
3.76226
-2.17996
1.29914
-0.334893
-1.72329
0.631551
1.85431
0.457528
-0.33376
-2.21062
2.06525
1.2103
2.17285
0.660715
1.21279
-0.959845
1.79552
0.407402
-0.30286
2.47187
0.3678
-1.38426
0.225005
-0.188228
0.112585
2.88271
-1.14505
1.22388
-1.02654
1.218
-2.28599
-1.10277
-1.82349
-0.701869
0.561625
-3.12719
0.716624
0.486883
-2.7845
0.814137
0.815844
1.17175
0
2.98781
-2.90846
-0.891534
-2.34053
-3.69899
2.46688
1.66462
2.78786
0.790185
-0.50527
-7.0742
1.0148
-0.69964
-1.61483
0.159964
1.37093
-2.20481
2.73142
1.95897
-0.171843
-3.16743
0.832942
0.207192
2.69772
0.542259
9.23673
0.161372
2.30289
0.490562
4.65947
0.447934
0
-0.803568
1.16296
-2.14014
1.10097
0.0388831
-3.40801
1.47182
1.31607
3.66085
0.00559391
-4.18444
-4.98715
0.430936
-1.77161
2.83475
2.97957
-1.06647
-0.296272
0.716212
3.10826
-0.927599
-0.915432
3.88625
-2.05557
2.16161
1.53938
-0.595858
-1.84173
-2.42305
0.660258
-1.44549
1.57835
-1.41862
-2.2457
0.192302
0.733927
-4.41582
-1.85488
-1.09228
1.54546
-1.82262
1.84985
-2.59687
-4.4941
0
-5.25723
1.76554
4.37827
-2.54076
-1.39708
-1.94873
-0.209338
1.3965
-3.04843
3.0735
0.0950527
3.43219
-1.42506
0.840004
-2.79822
-3.32606
2.85542
-2.00419
-4.40325
-0.456416
-0.167811
-5.86437
-0.0926393
7.076
0.453545
3.00421
-1.04174
1.00401
-1.09164
-1.47461
2.27932
-2.56702
-1.48351
4.19191
0
-5.80763
-0.162077
-0.00663697
-3.03852
4.78273
1.04873
-6.24407
6.27991
-3.07217
1.10058
-0.984064
-1.83802
-1.86883
-0.789828
0.45562
1.61708
-0.461857
-1.92804
0.168272
1.16584
1.02884
-1.23382
0.0693052
-0.0141155
-1.56324
-0.597676
-2.93392
-5.97523
-0.945687
-1.34683
-0.18309
-2.42726
-1.76409
0.91895
-2.23365
4.98754
-0.331941
-2.05002
-1.5912
-0.902414
-1.84033
-0.459661
3.05513
-0.730361
-3.47337
0.674758
6.39906
0.377953
-3.95217
-0.938712
1.55652
1.85048
-1.10863
1.61985
-1.13015
1.84908
2.05571
0.794185
0.569645
-1.58132
5.24632
-0.269444
3.72361
-0.395326
0.681326
-3.41972
0
0.458183
-2.23273
6.12115
-1.67715
0
-1.28856
-1.40566
-3.50432
1.51235
-0.870504
-3.13003
-0.838334
-1.82109
-2.92905
2.05851
-2.9047
-0.907015
-6.23274
-1.10114
1.33477
0.769319
2.12939
-0.542071
-0.498101
0.473562
2.81757
1.25458
-0.472094
-0.954561
-2.05292
-1.51533
1.30105
2.2743
-0.274217
2.00155
-3.0191
1.39427
-1.86644
2.25587
1.94015
3.24472
0.774582
-0.699368
-0.905252
1.02349
0.326835
3.96221
1.74553
-0.247127
2.7353
3.75268
-0.923752
-2.71086
0.937098
0.756597
-1.53796
-1.39147
0
-1.0815
-1.468
-1.19751
1.68008
-1.65724
-0.0945962
-0.710201
-0.142812
-2.55008
-4.19499
-2.51396
-1.59507
0.473887
-9.10799
0.0544776
-4.50873
-2.91435
-1.79932
-0.499452
-1.88092
-0.954651
0.529468
0.719735
-0.838361
-5.69384
2.74863
2.72767
0.395059
1.0305
0.784286
-0.886112
-0.609774
0.0204229
-2.83056
-1.65097
1.64615
1.61381
0.0307922
0.388163
-2.38535
-0.448182
0.605499
-0.194516
-0.24513
0.588915
3.21015
0.0605992
-5.5167
-1.34797
-2.29423
-1.6481
2.15131
-0.169877
4.2472
0.040431
-2.09429
-0.831601
6.15144
-0.384647
3.41678
3.92566
1.21989
4.91906
2.896
-0.429163
-0.560881
-2.54958
-2.22179
-2.37463
-0.098037
2.15078
-2.77345
-2.85615
2.99809
-1.6842
-1.5711
-2.89605
-6.68635
-2.46767
0.445612
10.3925
-4.33944
-17.1415
1.64982
3.873
4.68686
3.81697
-0.0599915
1.13566
-1.88837
-2.6189
2.95251
-16.1277
-0.620806
-0.437185
1.59668
-1.28751
0.885155
-2.57748
7.66077
7.51696
7.7819
5.14468
7.65664
9.65782
5.14518
5.62389
-0.990356
11.1991
-7.53485
3.88015
13.8978
-0.668967
5.17539
3.22804
0.685051
-3.95554
1.84626
0.528928
8.09358
-0.201799
0.941822
-0.238219
1.83663
6.99484
6.08187
5.52434
6.54471
4.94882
3.22668
5.86304
1.6142
-3.73868
1.16904
0.966878
-1.76324
-2.78266
5.78751
0.272167
0.944004
5.88585
-0.0582849
3.46438
2.00062
-4.18684
1.44555
-0.680281
3.6886
-1.14733
2.28091
8.64394
2.42848
-0.516309
0.483369
-9.67291
-0.348937
-10.9209
4.93607
1.63515
4.331
-2.37701
0.904379
1.15752
3.40848
5.45655
1.92391
6.86134
-0.908665
1.17381
3.30598
-0.250357
3.86794
-7.81807
1.45947
3.22849
2.61422
5.82246
-2.60254
-1.96045
3.5766
8.78747
-1.10104
0.458023
1.76642
12.3875
-0.275904
-17.0536
-2.3264
1.09539
5.90858
1.0172
-4.41931
-5.28842
12.9054
-0.326905
-6.8763
-5.40997
-1.21959
-2.74633
11.6018
-5.25152
-0.207191
-6.23715
-2.44539
-3.05381
-7.75101
-2.49254
-10.5016
-4.11076
-5.9154