# vtk DataFile Version 2.0
Unstructured Grid by M++
ASCII
DATASET UNSTRUCTURED_GRID
POINTS 4072 float
  0.812500   0.625000 0
  0.953125   0.609375 0
  0.968750   0.609375 0
  0.875000   0.687500 0
  0.812500   0.937500 0
  0.859375   0.687500 0
  0.796875   0.937500 0
  0.968750   1.000000 0
  0.984375   0.984375 0
  0.968750   0.984375 0
  0.843750   0.656250 0
  0.875000   0.656250 0
  0.812500   0.906250 0
  0.859375   0.640625 0
  0.781250   0.984375 0
  0.843750   0.734375 0
  0.781250   0.968750 0
  0.843750   0.718750 0
  0.765625   0.968750 0
  0.828125   0.718750 0
  0.921875   0.593750 0
  0.859375   0.843750 0
  0.765625   1.000000 0
  0.828125   0.750000 0
  0.875000   0.796875 0
  0.890625   0.781250 0
  0.875000   0.781250 0
  0.921875   0.609375 0
  0.859375   0.859375 0
  0.984375   0.968750 0
  1.000000   0.968750 0
  1.000000   0.953125 0
  0.859375   0.734375 0
  0.796875   0.984375 0
  0.875000   0.734375 0
  0.812500   0.984375 0
  0.906250   0.953125 0
  0.968750   0.703125 0
  0.796875   0.750000 0
  0.812500   0.812500 0
  0.828125   0.796875 0
  0.781250   0.843750 0
  0.843750   0.593750 0
  0.953125   0.937500 0
  0.890625   0.625000 0
  0.828125   0.875000 0
  0.906250   0.625000 0
  0.843750   0.875000 0
  0.890625   0.609375 0
  0.828125   0.859375 0
  0.906250   0.609375 0
  0.843750   0.859375 0
  0.906250   0.593750 0
  0.843750   0.843750 0
  0.843750   0.765625 0
  0.859375   0.750000 0
  0.796875   1.000000 0
  0.937500   0.609375 0
  0.875000   0.859375 0
  0.765625   0.515625 0
  0.843750   0.640625 0
  0.843750   0.578125 0
  0.781250   0.828125 0
  0.843750   0.515625 0
  0.781250   0.765625 0
  1.000000   0.687500 0
  0.937500   0.937500 0
  0.828125   0.593750 0
  0.765625   0.843750 0
  0.828125   0.531250 0
  0.765625   0.781250 0
  0.765625   0.984375 0
  0.828125   0.734375 0
  0.812500   0.734375 0
  0.765625   0.765625 0
  0.781250   0.750000 0
  1.000000   0.656250 0
  0.937500   0.906250 0
  0.765625   0.750000 0
  0.968750   0.578125 0
  0.953125   0.593750 0
  0.953125   0.578125 0
  0.937500   0.593750 0
  0.875000   0.843750 0
  0.812500   0.796875 0
  0.875000   0.546875 0
  0.984375   0.953125 0
  0.984375   0.937500 0
  0.765625   0.562500 0
  0.937500   0.656250 0
  0.875000   0.906250 0
  0.765625   0.531250 0
  0.937500   0.625000 0
  0.875000   0.875000 0
  0.937500   0.859375 0
  1.000000   0.609375 0
  0.828125   0.687500 0
  0.765625   0.937500 0
  1.000000   0.781250 0
  0.812500   0.671875 0
  0.984375   0.765625 0
  0.828125   0.656250 0
  1.000000   0.750000 0
  0.937500   1.000000 0
  0.781250   0.515625 0
  0.953125   0.671875 0
  0.890625   0.921875 0
  0.781250   0.578125 0
  0.953125   0.984375 0
  0.984375   0.640625 0
  0.921875   0.890625 0
  0.968750   0.625000 0
  0.906250   0.875000 0
  0.812500   0.765625 0
  0.984375   0.859375 0
  1.000000   0.843750 0
  0.968750   0.859375 0
  0.843750   0.703125 0
  0.781250   0.953125 0
  0.843750   0.750000 0
  0.781250   1.000000 0
  0.843750   0.687500 0
  0.781250   0.937500 0
  0.828125   0.765625 0
  1.000000   0.859375 0
  0.828125   0.703125 0
  0.765625   0.953125 0
  0.968750   0.968750 0
  0.968750   0.953125 0
  0.796875   0.781250 0
  0.859375   0.531250 0
  0.968750   0.937500 0
  0.953125   0.968750 0
  0.781250   0.796875 0
  0.843750   0.546875 0
  0.953125   0.953125 0
  0.781250   0.812500 0
  0.953125   0.906250 0
  0.859375   0.781250 0
  0.859375   0.703125 0
  0.796875   0.953125 0
  0.859375   0.765625 0
  1.000000   0.734375 0
  0.937500   0.984375 0
  0.828125   0.578125 0
  0.765625   0.828125 0
  1.000000   0.796875 0
  0.828125   0.640625 0
  0.984375   0.734375 0
  0.921875   0.984375 0
  0.812500   0.640625 0
  0.890625   0.953125 0
  0.953125   0.703125 0
  0.796875   0.687500 0
  0.968750   0.781250 0
  0.968750   0.750000 0
  0.906250   1.000000 0
  0.953125   0.765625 0
  0.812500   0.718750 0
  0.843750   0.984375 0
  0.906250   0.734375 0
  0.921875   0.625000 0
  0.859375   0.875000 0
  0.921875   0.687500 0
  0.859375   0.937500 0
  0.968750   0.796875 0
  0.796875   0.703125 0
  0.937500   0.671875 0
  0.984375   0.796875 0
  0.812500   0.703125 0
  0.765625   0.687500 0
  0.937500   0.843750 0
  1.000000   0.593750 0
  0.937500   0.781250 0
  1.000000   0.531250 0
  0.812500   0.781250 0
  0.984375   0.875000 0
  0.843750   1.000000 0
  0.906250   0.750000 0
  0.968750   0.500000 0
  0.968750   0.718750 0
  0.906250   0.968750 0
  0.796875   0.625000 0
  0.859375   1.000000 0
  0.921875   0.750000 0
  0.968750   0.765625 0
  0.796875   0.609375 0
  0.859375   0.984375 0
  0.921875   0.734375 0
  1.000000   0.625000 0
  0.937500   0.875000 0
  1.000000   0.562500 0
  0.937500   0.812500 0
  0.875000   0.984375 0
  0.937500   0.734375 0
  0.906250   0.703125 0
  0.843750   0.953125 0
  0.906250   0.687500 0
  0.843750   0.937500 0
  0.937500   0.765625 0
  0.890625   0.718750 0
  0.828125   0.968750 0
  0.890625   0.703125 0
  0.828125   0.953125 0
  0.921875   0.781250 0
  0.906250   0.796875 0
  0.921875   0.718750 0
  0.859375   0.968750 0
  0.921875   0.703125 0
  0.859375   0.953125 0
  0.765625   0.546875 0
  0.937500   0.640625 0
  0.875000   0.890625 0
  0.937500   0.703125 0
  0.875000   0.953125 0
  0.765625   0.593750 0
  0.937500   0.687500 0
  0.875000   0.937500 0
  0.890625   0.937500 0
  0.953125   0.687500 0
  0.906250   0.718750 0
  0.843750   0.968750 0
  0.937500   0.796875 0
  0.828125   0.921875 0
  0.890625   0.671875 0
  0.984375   0.750000 0
  0.921875   1.000000 0
  0.812500   0.593750 0
  0.875000   0.968750 0
  0.937500   0.718750 0
  0.890625   1.000000 0
  0.953125   0.750000 0
  0.968750   0.671875 0
  0.906250   0.921875 0
  0.968750   0.734375 0
  0.906250   0.984375 0
  0.796875   0.578125 0
  0.984375   0.671875 0
  0.921875   0.921875 0
  0.812500   0.515625 0
  0.812500   0.578125 0
  0.765625   0.578125 0
  0.843750   0.906250 0
  0.906250   0.656250 0
  0.890625   0.750000 0
  0.828125   1.000000 0
  0.781250   0.593750 0
  0.984375   0.546875 0
  0.921875   0.796875 0
  0.921875   0.812500 0
  0.859375   0.656250 0
  0.859375   0.593750 0
  0.796875   0.843750 0
  0.859375   0.578125 0
  0.796875   0.828125 0
  0.921875   0.953125 0
  0.984375   0.703125 0
  0.984375   0.625000 0
  0.921875   0.875000 0
  0.875000   0.640625 0
  0.812500   0.890625 0
  0.875000   0.578125 0
  0.812500   0.828125 0
  0.765625   0.859375 0
  0.828125   0.609375 0
  0.937500   0.953125 0
  1.000000   0.703125 0
  0.921875   0.906250 0
  0.984375   0.656250 0
  0.921875   0.968750 0
  0.984375   0.718750 0
  1.000000   0.765625 0
  0.890625   0.984375 0
  0.953125   0.734375 0
  0.953125   0.656250 0
  0.890625   0.906250 0
  0.953125   0.718750 0
  0.890625   0.968750 0
  0.781250   0.562500 0
  0.796875   0.796875 0
  0.968750   0.640625 0
  0.906250   0.890625 0
  0.953125   0.796875 0
  0.953125   0.859375 0
  0.781250   0.703125 0
  0.984375   0.781250 0
  0.875000   1.000000 0
  0.937500   0.750000 0
  0.906250   0.937500 0
  0.968750   0.687500 0
  0.843750   0.625000 0
  0.781250   0.875000 0
  0.765625   0.796875 0
  0.937500   0.890625 0
  1.000000   0.640625 0
  0.781250   0.781250 0
  0.906250   0.906250 0
  0.968750   0.656250 0
  0.796875   0.765625 0
  1.000000   0.718750 0
  0.937500   0.968750 0
  0.828125   0.562500 0
  0.765625   0.812500 0
  0.828125   0.625000 0
  0.484375   0.750000 0
  0.421875   1.000000 0
  0.000000   0.218750 0
  0.453125   0.640625 0
  0.281250   0.546875 0
  0.312500   0.640625 0
  0.406250   0.984375 0
  0.468750   0.734375 0
  0.328125   0.656250 0
  0.390625   0.828125 0
  0.453125   0.578125 0
  0.437500   0.875000 0
  0.015625   0.093750 0
  0.312500   0.531250 0
  0.406250   0.937500 0
  0.343750   0.562500 0
  0.281250   0.812500 0
  0.453125   0.984375 0
  0.359375   0.625000 0
  0.296875   0.875000 0
  0.468750   0.796875 0
  0.046875   0.015625 0
  0.437500   0.656250 0
  0.312500   0.578125 0
  0.421875   0.921875 0
  0.000000   0.140625 0
  0.484375   0.671875 0
  0.265625   0.734375 0
  0.468750   0.984375 0
  0.046875   0.203125 0
  0.406250   0.625000 0
  0.390625   0.609375 0
  0.375000   0.625000 0
  0.265625   0.562500 0
  0.484375   0.812500 0
  0.062500   0.031250 0
  0.484375   0.984375 0
  0.062500   0.203125 0
  0.312500   0.890625 0
  0.375000   0.640625 0
  0.375000   0.671875 0
  0.390625   0.687500 0
  0.484375   0.843750 0
  0.390625   0.500000 0
  0.328125   0.687500 0
  0.328125   0.765625 0
  0.390625   0.515625 0
  0.437500   0.796875 0
  0.484375   0.531250 0
  0.468750   0.968750 0
  0.046875   0.187500 0
  0.453125   0.843750 0
  0.453125   0.812500 0
  0.281250   0.718750 0
  0.468750   0.859375 0
  0.265625   0.984375 0
  0.375000   0.765625 0
  0.296875   0.562500 0
  0.484375   0.781250 0
  0.062500   0.000000 0
  0.453125   1.000000 0
  0.031250   0.218750 0
  0.453125   0.546875 0
  0.312500   0.703125 0
  0.328125   0.718750 0
  0.296875   0.656250 0
  0.281250   0.640625 0
  0.265625   0.656250 0
  0.281250   0.671875 0
  0.484375   0.890625 0
  0.062500   0.109375 0
  0.296875   0.687500 0
  0.296875   0.625000 0
  0.265625   0.703125 0
  0.265625   0.687500 0
  0.265625   0.625000 0
  0.953125   0.046875 0
  0.484375   0.875000 0
  0.484375   0.921875 0
  0.062500   0.140625 0
  0.453125   0.921875 0
  0.031250   0.140625 0
  0.968750   0.234375 0
  0.171875   0.671875 0
  0.500000   0.796875 0
  0.078125   0.015625 0
  0.218750   0.718750 0
  0.062500   0.828125 0
  0.734375   0.250000 0
  0.906250   0.140625 0
  0.109375   0.578125 0
  0.781250   0.015625 0
  0.718750   0.187500 0
  0.031250   0.828125 0
  0.718750   0.234375 0
  0.890625   0.125000 0
  0.093750   0.562500 0
  0.734375   0.359375 0
  0.859375   0.546875 0
  0.062500   0.984375 0
  0.750000   0.406250 0
  0.718750   0.343750 0
  0.250000   0.750000 0
  0.234375   0.734375 0
  0.046875   0.578125 0
  0.734375   0.000000 0
  0.828125   0.125000 0
  0.031250   0.562500 0
[...]
POINT_DATA 4072
SCALARS scalar_value float 1
LOOKUP_TABLE default
0.00204751
-2.67948e-06
6.71655e-06
-0.000727977
0.00419032
-0.00338481
0.0067323
0
0.00188297
-5.32033e-05
0.00200699
0.000421615
0.011999
0.000135277
-0.00248597
0.00220092
0.00505472
0.00270793
0.00274839
-0.00107208
-6.50067e-06
-0.00424574
0
-0.00345275
0.00261804
0.000753281
-0.00195551
9.93186e-06
-0.00269852
0.00270077
0.00426645
0.00128983
-0.000246345
-0.0041395
-0.000937682
-0.00445729
-0.0117403
-0.000109554
-0.00328719
0.0039876
-0.00836748
-0.0245779
2.89747e-05
0.00401651
0.000285039
-0.00115737
0.000268399
-0.00115637
0.000381483
-0.00297365
0.000124351
0.00291365
2.80909e-05
-0.000299506
0.00252406
-0.00117134
0
-7.19623e-06
-0.00197275
0.000770893
0.00209065
0.0002971
-0.00789094
-5.66516e-05
-0.00751986
0.000147867
0.00389273
-0.000847229
-0.0126603
-0.000100806
-0.000577311
0.0100701
-0.00350547
-0.000347528
-0.0149542
-0.00219183
2.8941e-05
0.000224667
-0.0212702
3.30022e-06
4.84951e-06
1.03981e-05
-8.21448e-06
-0.00671759
-0.000803808
2.28077e-05
0.00123807
-6.2775e-05
-0.00123117
6.54526e-05
-0.0048702
0.000736831
4.60187e-05
0.0033513
0.000334652
6.84221e-06
-0.00393703
0.0094968
-0.000461612
-0.0047887
9.84667e-05
-0.00150145
0.000825327
0
0.000827734
-3.52925e-05
-0.00656884
0.00110712
-0.00357591
1.20025e-05
-3.5163e-05
8.00165e-06
-0.0107624
-8.13263e-05
-3.60268e-05
0.000414039
-0.000381251
-0.000319175
0.00434533
0.00154474
0
-0.00293952
-0.00421953
-0.00386319
3.06052e-05
-0.000594155
0.00663577
0.00387205
0.00468766
-0.0085614
2.6807e-06
0.002511
2.80681e-05
-0.00330479
-9.72028e-05
0.00435988
0.000807761
9.28607e-06
0.00246058
-0.00430052
-0.00667088
-0.000201993
0.000135743
-0.00580657
-1.73221e-05
0.00355497
-0.00152554
0.0012951
0.00028693
-0.00284869
-5.22166e-05
-0.00752843
6.66158e-05
-0.000204385
-0.000924306
0.000230441
0
-0.00109863
-0.000866063
0.00491756
-0.00211338
0.000135098
-0.00156346
0.000393676
-0.00442212
-7.88586e-05
-0.00220816
-0.000205154
-0.000637236
0.00106911
-0.0110066
0.000181009
1.31707e-06
6.09262e-05
-3.36961e-07
-0.00227246
0.000152632
0
-0.000478364
-5.61709e-07
0.000290475
-0.00531579
0.000651232
0
-0.00150403
-0.000739355
0.00167353
0.00245685
-0.00160702
7.64081e-06
0.000159835
-6.7324e-07
-3.77806e-05
-0.00097797
-0.000387309
0.000543027
-0.00110753
0.00108976
0.00155375
-0.000928146
-0.00177837
0.0098071
-0.000337147
0.0120376
0.000471421
-4.36051e-05
-3.36377e-05
-0.00176552
0.000937653
-0.00187764
-0.000782823
0.000143749
0.00130505
0.000583829
-0.00338066
0.00191027
-9.12152e-05
-0.010841
-0.0122859
-0.000211331
-0.00145093
0.00584857
0.000123506
0.00157828
0.00138252
0.000416419
0
-0.000733792
-0.00185275
0.000727331
0
-0.000568405
9.57475e-05
0.000271348
0.000680259
2.82063e-05
-0.00113972
9.15579e-05
0.00231533
-5.35296e-05
-0.000345501
0.000503073
-0.00954904
-0.000347674
0.00192098
0
0.00380033
-1.06462e-06
0.000155055
-0.000211586
0.00124094
0.000466778
-0.0099524
0.000224211
-0.000286644
-0.00838013
-5.08196e-05
4.23974e-06
-0.0042717
-0.000627012
-3.05913e-05
0.00024621
0.0095794
0.00654496
-0.000891538
-0.000200045
-1.99908e-05
0.000202331
4.69322e-05
-0.00967207
2.55554e-06
0.000757979
-0.000793029
0.000433608
0.000111238
-0.00191042
0.00061135
-0.000870081
0.000381883
-0.0054659
3.63228e-05
-0.00697272
0.00011885
6.56719e-05
0.0044283
-0.000379508
0
-0.00141349
-0.00709335
-6.57527e-05
0.000333895
0.0513193
0.0171921
-0.000959901
4.83764e-06
-0.00780346
-0.00164893
0.000100858
-0.00744368
-0.000199523
-0.00697129
0.000278229
0.022282
0.000589862
0.730742
0
6.0956e-09
0.738204
-0.00195911
0.207968
-0.00795967
0.827239
0.65563
0.397364
0.384905
-0.00971517
6.87712e-10
0.15591
-0.0372992
0.29085
0.0372097
-2.92385e-05
0.540873
0.00704349
0.432911
0
0.787936
-0.0527178
-0.0588588
1.46924e-09
0.857744
-0.00829234
-0.0332407
5.8713e-09
0.126702
0.443977
0.553321
-0.00112117
0.288189
0
0.0114326
7.34303e-09
0.0356757
0.628936
0.760909
0.836514
0.0525193
0.00303557
0.798071
0.610311
0.0446635
1.0389
0.209428
-0.0232844
5.24052e-09
0.100974
0.336137
-0.105636
-0.00512437
0.0236466
0.813567
-0.0271932
0.520473
0
0
8.15143e-09
0.229514
0.79612
0.851984
0.0811952
-0.0955151
-0.0179268
-0.0532594
-0.0729179
-1.19757e-09
0.394231
-0.13524
0.0101468
0.0222285
-0.0240403
0
-0.0807021
-0.0592945
2.84806e-09
0.0183201
1.83031e-09
0
-0.000549575
0.381043
0
0.0213054
0.00045437
8.06012e-06
9.46329e-10
5.10871e-05
-1.41476e-09
6.60941e-05
-0.000466872
0.000128699
-2.03696e-09
-0.000156344
0.000343653
5.16678e-06
-0.0036577
1.53538e-05
-2.82529e-05
0.0120734
-0.0238846
-5.86568e-05
-1.91865e-07
-3.09745e-10
5.80171e-06
-0.00251261
0.000612439
-1.84877e-06
-0.000184678
-4.62462e-10
0.000191497
5.90011e-08
0.00841519
0.00206831
0.000764698
-6.41086e-10
5.68814e-07
0.00472645
-0.0263469
-2.31709e-06
3.02825e-05
-9.39266e-05
0.000626217
-0.00036343
8.3965e-08
-6.64533e-09
-6.99556e-05
-1.89438e-09
0.00159455
0.00113733
1.1711e-05
0
-3.68262e-08
0.00097101
8.52639e-08
0.00078045
0.00442517
1.24814e-05
3.14261e-10
-4.00124e-06
0
-0.00274617
3.13687e-07
4.66906e-06
1.1757e-08
-0.0032133
7.56926e-06
0.000105631
-0.000608998
-0.0882624
7.36194e-10
0.00014387
0.00425166
1.70238e-09
1.65353e-05
1.65887e-07
0.00224542
0
-0.00130916
0.000125112
2.05127e-07
0.00290068
0.000108391
8.49605e-06
7.73107e-05
-0.000107184
-0.00259194
0.000706508
-4.93864e-09
-0.000800261
-0.00319056
0.000503018
-3.48155e-08
-0.00563887
0
4.37501e-06
1.65135e-09
-0.00024051
5.9005e-05
1.09527e-07
-1.13396e-10
0.000603273
0.0442827
3.56399e-05
-0.0295646
0.909989
-0.000195357
0
-0.00160096
-3.96774e-05
4.3195e-08
-0.010088
0.000250382
-3.88159e-10
0
-0.00068601
4.07607e-07
-0.0282446
0.00116192
2.23514e-09
4.34772e-07
1.21289e-08
0
0.000232936
-9.6946e-08
0
0.000352882
0
0.000126212
-4.08911e-06
2.33131e-07
-1.7257e-06
0.00050336
0.00153679
0.0193154
0
-0.000399267
-1.53846e-06
-0.00836206
-0.00114276
-1.74227e-05
-6.36177e-06
2.22585e-10
-1.48241e-10
6.0936e-05
-0.000146176
-2.35032e-06
6.14944e-05
3.85979e-06
-0.000152597
5.10764e-05
-0.00696531
0
6.9735e-06
-1.74405e-06
0.256577
-0.000955898
0.000362801
-1.21538e-10
-6.62774e-05
3.97137e-07
-0.00581411
-0.00564195
0.180127
-0.000897069
0
-0.000221651
2.24037e-06
0.0275482
1.74539e-07
0.0120434
1.38552e-05
2.27923e-09
9.00197e-05
-5.58316e-08
-0.00214038
-0.00577772
0.00483908
1.64158e-08
0.000525989
-0.00666797
2.94815e-05
-1.51759e-10
5.47202e-05
-3.82356e-05
0.000683731
-7.92942e-10
-0.000109394
-3.76898e-09
0.000726503
-6.53383e-07
0.000173043
0.000172578
-0.00946357
0
-0.000114543
-0.00204155
4.79378e-06
-4.59374e-10
-0.00762165
3.91935e-10
3.06426e-06
0.000176483
-0.0114557
-4.11243e-07
0.000346904
-0.00733442
-5.99813e-07
0.00655745
-0.000897884
8.53162e-10
-4.32069e-05
0.000357412
-7.19463e-05
4.3882e-08
0.000501878
-7.39297e-05
-2.26209e-07
0.00497303
-0.0019134
-6.75896e-07
-0.0140647
-1.3809e-05
-0.000414045
-7.77964e-06
0.015836
0.000115518
-2.96843e-09
-1.49264e-09
0.000149393
-9.67367e-09
-0.00174264
-1.77041e-09
4.52467e-06
6.14076e-06
9.50518e-10
6.73087e-06
-2.32578e-07
1.69597e-06
0.000881648
0
7.84562e-06
-1.35654e-05
4.64524e-05
4.96481e-05
-0.00119022
0.00011394
-1.39898e-07
0.000105594
2.02497e-05
0
-9.11295e-09
8.19022e-05
-0.00379258
-7.31141e-07
0.000183015
-2.82845e-06
-5.20753e-07
0.000412122
-4.9952e-05
3.84403e-06
-6.77329e-05
4.03854e-08
-0.00227696
5.07389e-08
8.77981e-05
1.13254e-05
0.000110338
1.05851e-05
1.19473e-07
0.000154757
1.61883e-05
-1.01195e-08
4.12461e-05
-7.91301e-07
-0.0144391
3.39104e-07
2.19024e-05
0
1.54699e-05
-5.18672e-06
-0.0234588
-3.06567e-08
-5.06313e-07
0
-0.000216037
7.96895e-06
1.79373e-10
-0.000199152
-0.032062
0.00513973
4.782e-06
4.4713e-06
-4.20783e-07
-0.0186655
0.000402886
-0.00771886
-1.17208e-10
0.000213836
-2.54239e-10
-0.000119151
-0.000281167
1.91312e-05
-0.00430988
-1.09783e-06
-0.00607589
0
0
0.00866642
2.76254e-06
1.35128e-06
-3.78417e-07
-2.96822e-09
0.000115502
-4.00875e-07
-0.00251516
4.44647e-05
-3.25952e-05
6.40722e-06
0.14096
-1.43871e-10
-7.96786e-09
3.56951e-07
1.47247e-06
-3.52077e-08
-3.21302e-05
4.19303e-06
2.34616e-06
5.90771e-06
-0.052342
9.00431e-08
-8.12765e-05
3.34074e-06
-2.372e-05
1.69663e-06
-0.0173611
0.00255106
0.38367
2.61289e-06
0.010596
0.476067
0.00369467
6.81118e-05
0.00147194
0.696762
4.52959e-05
0.010589
0.000435506
0.0252947
0.00267619
1.51581e-06
0.000763934
0.000364399
0.000560823
0.000107453
0.000136771
0.000289378
9.57858e-05
0.000222847
4.2563e-05
4.69433e-05
0.037819
-2.06554e-05
0.0471258
0.00266832
2.4534e-09
3.28654e-05
0.000952388
9.70416e-05
7.11064e-05
0.0125204
-0.00681159
0.000381988
5.51936e-05
4.996e-05
-0.00607052
6.37562e-05
0.00444357
6.70563e-05
0.000135839
0.000278121
0.000314401
0.000285104
0.00603132
0.000206397
1.43012e-05
-0.0173951
-7.63075e-05
2.30012e-05
-2.53943e-05
0.0024531
-0.00585313
1.21702e-06
0.00146721
1.53764e-06
0.00363763
3.17115e-06
0.260077
0
0.00113695
-0.0143596
1.1575e-05
0.00262803
0.000131367
0.0350172
3.76163e-05
0.0108777
5.94804e-07
-0.000235596
-0.0736441
2.22852e-10
0.00817968
-1.63603e-07
0.00110088
3.31742e-06
-0.00715445
0.305234
0
0.000702414
9.6735e-08
2.53084e-05
0.000398776
-0.00812643
0.000228354
0.0129302
0.00416776
1.39606e-07
4.66963e-05
0.0494703
0.891009
4.50718e-05
-0.0255016
1.78513e-09
0.0379695
-1.75639e-06
-0.0060192
0.0468994
3.26118e-05
-0.00763363
0.0109311
0.020873
4.40875e-05
-5.04679e-08
-0.00242646
0.403552
0
3.91346e-05
3.11863e-06
-0.000513453
0.000882357
8.53264e-06
0.0018896
2.18179e-06
0.501222
0
0.000684991
5.36833e-06
0.00135152
3.27404e-06
0.000961595
-0.00900392
-2.57538e-06
1.08651e-05
-0.0227617
0.0826325
0.000202613
0.00724802
-0.00914523
0.000183071
0.00621317
0.000553901
0
0.000279764
1.13573e-05
-0.000401166
0.00208022
9.7108e-06
-0.00523198
2.40021e-05
-0.00209031
0.00226374
9.43302e-06
0.000216038
-6.56476e-06
5.36232e-06
0.0115822
0.006462
4.71363e-06
0.000176567
0.0404926
-0.00976744
0.000747944
5.87419e-06
0.0100825
-0.0125127
0.0883129
0.0649033
0.100271
0.00410649
0.00475035
-0.00303511
-1.17926e-09
2.59702e-06
0.00488976
0.0562411
0.00400546
1.5793e-05
0.00558098
-0.0167205
0.00141408
-2.02143e-08
2.0969e-05
0.00565221
1.84584e-05
-1.70176e-05
0.00519561
-0.000603739
5.40842e-09
3.04188e-05
0.0644158
-2.62771e-06
4.93837e-06
0.0177709
0.051697
0.0506042
-8.05718e-06
1.11996e-05
0.000135545
0.0224502
0.0418006
-6.6587e-06
1.71169e-05
-0.0265062
-0.00748452
0.000537112
0.0689596
0.000303023
0.563837
5.07338e-06
-0.00885901
0.000959823
0.00720508
0
3.18464e-08
0.00014332
0.000156719
3.50476e-05
-0.00445964
-4.43841e-06
0.00295419
0.000101054
0.0118916
0.000128047
2.45321e-05
0.0332734
-4.02669e-05
0.000175361
0.0149111
0.00323021
1.39473e-05
2.67266e-05
-0.0111
-9.17006e-06
1.60744e-05
-2.67768e-05
9.99739e-06
0.0805202
0.00105101
1.11154e-06
0.0714179
0.549344
2.80712e-05
0.0012005
4.32785e-10
0.00778814
0.0261067
4.51856e-07
0.00585091
-0.000119766
2.07056e-05
0.123955
0.0593551
0.146921
0.11178
0.0931182
0.00469939
1.70966e-05
4.52579e-06
0.00119995
0.776139
0.000124309
0.00631028
0.0284008
4.47727e-05
-0.00196709
1.25645e-06
0.0265246
0.110908
2.75604e-06
0.000685506
0.12157
0.000129505
1.23157e-06
0.00598875
3.17305e-09
-0.00522037
0.51476
1.37818e-07
-0.0179587
0
0.0966229
0.747556
5.97919e-05
0.00109389
0.000254967
-0.00220813
-3.63162e-07
-0.000338354
-0.000493737
4.13188e-09
0.0781286
0.811207
5.02412e-05
3.70939e-06
0.00623814
0.0194176
1.94778e-05
0.0147276
5.54974e-06
0.0140458
0.0151581
4.0042e-05
-0.00443639
0.016867
-0.00158859
-2.23549e-10
9.50258e-06
5.17732e-08
0.0021272
2.1288e-10
3.80971e-08
0.0145816
5.99095e-05
1.55685e-08
0.00426754
3.62621e-10
0.140149
0.625298
3.5966e-07
1.84579e-09
-0.0700623
-8.21596e-08
0.778076
7.5624e-08
0.0130886
9.66527e-05
-0.00511601
2.5801e-07
0.000482558
1.74228e-09
-0.0531923
5.63768e-09
0.0252826
1.58299e-09
1.19686e-06
1.54898e-08
8.91597e-07
2.4908e-10
-0.00113694
5.24314e-09
0.000291146
-1.08562e-10
8.64932e-06
9.60771e-10
0.516293
0.0106073
-3.36521e-06
2.28568e-09
-0.00687487
-0.0462166
9.20514e-07
0.193109
-5.8957e-09
0.382752
1.26185e-05
-0.000195839
2.04616e-06
-2.9731e-08
-0.0019824
-0.00148848
-3.46006e-06
1.92027e-08
0.00617973
5.07316e-05
2.45157e-08
7.85016e-09
0.00806634
-0.0521964
3.96445e-05
-4.43936e-05
3.25705e-08
0.00301104
-1.38898e-10
0.172437
-8.73976e-05
0.00129993
2.64434e-08
-0.000874639
0
0.300544
1.7042e-08
-2.0664e-05
-3.05016e-08
0.0102403
-8.17173e-09
-0.000179374
1.31723e-09
-0.0626741
2.89513e-09
1.25924e-08
0.000728582
-8.3875e-08
-8.89047e-09
0.295918
0.000484454
0.0582539
2.98043e-09
-0.0124164
1.36393e-05
1.07422e-06
-0.012766
-0.000505903
-1.94156e-06
4.85675e-09
-0.00148673
-6.95645e-06
2.06181e-09
0.295794
2.91457e-09
0.162795
-9.26631e-06
0.0538902
1.35249e-06
0.0638715
-6.67363e-08
-0.00164203
-1.21419e-05
-0.00926182
-0.00126806
-1.16797e-05
-2.61337e-09
-0.00646442
0
0.469155
-0.0539842
5.72951e-09
0.0334805
-0.0155642
-1.26452e-05
0
3.0772e-06
5.06685e-08
-0.00879234
-0.00425732
-2.43161e-08
-0.0479638
0
1.69921e-06
3.27837e-08
-0.0405898
0.00326343
1.90019e-10
0.074795
1.29256e-07
0.00968867
0
4.13203e-07
1.25002e-10
0.171181
8.92719e-08
2.08779e-10
5.38623e-07
0
0.000109978
0
0.0597941
1.32547e-07
2.76348e-06
-7.00795e-10
0.304626
4.08492e-07
-3.20428e-06
-0.00460859
1.75247e-06
-3.31909e-09
-0.0242448
7.1862e-08
3.88477e-10
0.193937
-2.05024e-08
0.0851614
1.5967e-06
-0.0011351
1.50073e-06
-2.85874e-08
-4.44565e-05
-1.24127e-08
0.164875
0
0.000334966
7.09583e-07
4.49436e-09
-1.26111e-05
5.72871e-06
-0.00884861
8.03365e-06
-3.25508e-08
0.00922033
2.00949e-06
0.001071
-3.11741e-08
-0.000583105
1.48461e-09
0.473916
1.35304e-06
-1.90031e-08
-0.0413982
0.00045156
-6.89935e-08
-3.13024e-09
-0.0045074
-1.10959e-09
-0.0232277
0.018631
0
1.63038e-06
0.011325
-1.82521e-07
-0.0146152
-3.92744e-07
-4.05038e-08
-0.00728782
-1.28616e-06
-9.30171e-08
-3.27986e-07
-0.0114807
-3.55782e-08
-0.0117296
4.24871e-06
-3.92873e-08
-0.0401037
-0.00082216
5.58572e-08
-2.04277e-07
0.00386273
-1.55194e-08
-0.0130303
-2.12489e-07
-5.90932e-09
-0.015341
1.13299e-06
9.8017e-05
0
0.00127009
-3.48678e-08
-1.64207e-07
-0.00556196
-2.49701e-10
-0.016336
-0.00105429
-4.60967e-06
5.10357e-07
0.0194062
-0.0102511
2.77107e-06
-0.0778743
-3.41459e-07
0.0254541
-0.00101094
-9.49957e-08
0.000110504
1.13401e-08
3.55832e-06
-4.8791e-06
0.229591
2.12833e-08
0.0144909
0.0307763
-5.0862e-06
-2.71941e-09
-0.00157951
3.94623e-07
-2.71362e-07
0.0180157
-5.90815e-06
-0.0882677
-1.88879e-07
0.0145685
7.62066e-07
2.6435e-07
0.00690319
0
-0.00641093
2.67103e-05
-1.18589e-07
0.00731026
-4.53876e-06
0.00393483
-6.21539e-08
-0.002481
0
0.180283
1.10198e-06
3.89049e-05
-0.00833362
9.63053e-06
1.15386e-07
-0.00383467
1.60667e-10
-0.00197784
-8.77902e-08
-0.00286413
1.29843e-09
0.075475
-6.63985e-07
-0.000911728
7.45749e-09
0.00739073
4.59498e-06
5.70958e-07
2.14639e-06
0.017128
1.81269e-07
0.00146534
-0.0125031
4.93911e-09
1.14664e-08
0.0862874
-0.000100352
0
1.05565
0.0031245
-1.61908e-07
-0.00619313
-1.22866e-08
0.0197141
-2.9782e-09
-0.0242765
7.48487e-08
-1.42087e-09
-6.96538e-08
-6.55587e-08
8.82154e-05
7.59143e-10
0.155885
-0.00315007
-2.32173e-10
0.205551
-0.00189222
-3.02971e-08
-0.0165935
4.63028e-07
6.45854e-08
-0.00212188
-0.000455647
0.000515729
5.17456e-07
8.43891e-05
-2.04385e-10
0.0562075
-3.07124e-08
0.00207032
1.56137e-10
4.67317e-06
2.54768e-09
2.46547e-09
-9.12984e-05
0.000373812
0
-0.00218136
1.8579e-07
-4.39912e-07
-0.0213591
3.89973e-05
0
-4.11064e-08
-1.21894e-05
0
2.81728e-06
-4.88278e-08
0
-0.00153972
1.879e-10
0.310561
-0.00266198
-5.76122e-08
-1.0892e-05
1.51221e-09
-3.31977e-08
-0.00170956
-8.31651e-10
0.331273
-0.00030488
-8.12048e-09
-1.04473e-07
-1.49901e-05
-4.22305e-09
0.0781542
0
0
2.79583e-06
0.00181962
-2.23888e-08
0
1.79107e-06
-0.0122877
1.31746e-06
-2.50944e-07
-9.47022e-06
-2.42265e-08
-0.00518526
-1.58054e-10
0.00193423
-2.31229e-10
0.108578
6.23685e-09
-0.00027193
4.63148e-08
7.03968e-05
0.000683194
0.0165624
1.17721e-10
3.67512e-07
0
2.4534e-10
0.0255244
3.7077e-08
0.0030328
0.000151333
-6.23438e-07
1.84941e-07
1.55436e-08
0.407056
5.98467e-07
0
0.996192
0.57911
1.82996e-07
-7.28694e-06
8.46364e-10
0.000787061
7.75105e-06
-8.81342e-08
0.799686
2.16203e-07
0
0.00031025
-3.69576e-07
3.72193e-08
0.147387
-2.96028e-06
-0.00350559
3.74012e-07
0.0162947
9.29081e-06
-1.55283e-06
0
0.00272358
9.68431e-07
0
0.00154029
0
6.28265e-06
0.713469
1.12329e-07
0
-0.000759478
0.0905758
1.87299e-06
-0.0151358
0.554061
4.17393e-08
0
0.549894
-7.71596e-07
0
-0.00049051
7.72478e-08
2.4591e-05
-3.1562e-09
2.73956e-06
-0.00678101
3.5103e-06
1.07234e-06
-0.0119102
0.000116644
-5.33506e-06
-2.73953e-09
-0.0297545
9.18866e-07
-3.8982e-10
0.496533
2.68946e-05
0
-5.52986e-08
-0.00661637
0
2.3646e-06
5.28826e-08
-0.0173848
0.000118531
-6.17441e-08
3.4854e-05
0
0.69279
2.99549e-10
5.13049e-06
5.86081e-06
3.05438e-08
0.0282952
8.70916e-08
-0.000181073
0.000445894
6.12196e-05
-0.00167831
-0.000488048
-7.09461e-09
-0.00110887
-9.50221e-10
-0.0335714
-0.00862555
6.12435e-07
-2.0533e-05
-0.0018728
2.81095e-07
1.06544e-05
-0.0240674
5.30356e-07
0.000159075
0
-0.00839437
0.00103989
0
-2.59509e-08
0.00018761
-1.09378e-10
0.345539
-6.62974e-05
1.29617e-05
-0.0116509
-7.65267e-05
0.000299036
0.0101209
4.2383e-06
-1.2804e-09
-3.67577e-05
0.000112845
0.00598729
-2.47511e-10
0.031717
7.65515e-08
-0.000118867
-1.51249e-05
2.36468e-06
-1.12026e-07
-0.000177944
0
0.239544
-0.00205998
2.50758e-08
-0.000935194
0
0.551332
-0.00012014
-0.000456847
7.43566e-06
7.9569e-08
-0.0166172
-5.29119e-06
-0.0808797
-9.76799e-10
-0.00575025
4.21127e-09
-0.0358092
6.65061e-07
-3.66333e-10
-0.061492
4.24651e-05
7.03007e-08
-1.66623e-07
1.39314e-09
0.116948
9.60905e-09
0.7243
4.39433e-07
0
0
-0.000916552
0.0740413
-1.62861e-08
-7.02689e-05
-5.28723e-08
-1.08478e-06
1.34276e-07
-0.0133472
-5.99016e-08
1.31073e-09
0.503506
0.000181766
0
-1.53945e-08
3.7613e-06
3.99148e-09
0.0361664
2.45652e-08
-0.0120381
0
3.12171e-06
-1.64867e-10
2.63571e-05
0
0.603022
0
-9.65684e-10
9.67201e-05
9.88687e-10
-0.086056
2.83537e-06
-0.000117304
0
2.85475e-06
1.38262e-08
-0.00645415
0.00025595
2.05263e-06
0.00881514
-0.00055757
3.94873e-09
0.0160035
1.85394e-07
4.08346e-10
-5.7696e-09
0.0021859
-6.60286e-08
0
0.000830128
-0.00679441
3.84307e-07
0.00133914
-5.82799e-06
1.56326e-05
0.0151315
-0.00116008
0
0.465303
0.00130558
-1.97027e-08
0.0134784
-5.10041e-05
0.866491
0.000229378
-0.00056918
-1.52509e-06
-4.00141e-07
-0.00239166
-8.76346e-05
-8.17759e-07
-0.00185301
-0.000114256
2.4055e-10
0.378859
0.00179337
0
-0.0288247
-0.00419765
3.8578e-07
-6.34223e-05
0.000250275
-1.42483e-06
-5.4922e-07
-8.82889e-06
1.82725e-05
-0.00824289
-0.00012344
8.09706e-10
-0.093847
9.24945e-07
1.50327e-05
1.41716e-05
-0.0191057
-4.62e-05
-1.51219e-06
0
2.94724e-06
2.94089e-05
-0.00932476
2.09003e-09
-0.0328496
1.54643e-09
-0.0662515
0.000126797
5.72778e-07
-0.000721359
-4.8607e-05
2.89981e-06
0.000311634
0.0259663
-0.000647596
-1.57454e-09
3.68349e-06
-2.72843e-06
2.73979e-07
1.92993e-10
0.0184108
0.0387573
-1.46289e-05
-3.12646e-06
-0.00146919
-1.80402e-07
-1.12617e-07
-0.0287918
1.15466e-08
2.05295e-09
0.00124498
3.00428e-09
0.0316281
2.49707e-06
0.00146047
1.048e-10
2.03243e-06
-3.9292e-07
0.0177294
-1.2875e-06
8.94014e-05
-2.94761e-05
2.2381e-05
0.0171866
-2.73152e-05
-1.3678e-05
9.7085e-08
0
-1.46585e-07
0
5.56029e-06
0.00243281
-5.56211e-05
0.818073
2.91263e-05
-0.00400446
-1.10376e-05
7.80631e-06
-0.00232927
-0.000676389
4.84623e-05
-0.00281245
0.0624799
-4.224e-07
-0.000335571
-3.79396e-08
-0.0150763
-2.8449e-05
0.000170602
0.00418039
4.33128e-05
4.51981e-05
0.0035019
3.75795e-05
3.18831e-05
-0.0108976
1.97809e-08
-0.0838601
-0.0096874
-2.44978e-10
-0.0805665
0.598113
9.68484e-08
0.0189967
-0.104801
1.14507e-07
0
1.52314e-09
-0.0203848
5.20194e-07
9.05181e-07
0.000251536
1.7129e-06
-0.0113796
7.43733e-07
0.000668566
-9.7541e-07
-1.21386e-09
4.54404e-06
0.000311151
3.12219e-06
0
5.45837e-08
0.0021573
6.44108e-08
0
0.000451582
0
0.262403
2.75364e-07
0
0.0509576
-0.000385664
-9.73321e-10
0.526195