# vtk DataFile Version 2.0
Unstructured Grid by M++
ASCII
DATASET UNSTRUCTURED_GRID
POINTS 66049 float
  0.792969   0.632812 0
  0.796875   0.632812 0
  0.792969   0.628906 0
  0.796875   0.628906 0
  0.796875   0.621094 0
  0.792969   0.621094 0
  0.792969   0.625000 0
  0.796875   0.625000 0
  0.660156   0.925781 0
  0.972656   0.882812 0
  0.792969   0.617188 0
  0.792969   0.613281 0
  0.796875   0.613281 0
  0.796875   0.605469 0
  0.792969   0.605469 0
  0.792969   0.609375 0
  0.796875   0.609375 0
  0.792969   0.601562 0
  0.796875   0.601562 0
  0.792969   0.597656 0
  0.796875   0.597656 0
  0.664062   0.902344 0
  0.976562   0.859375 0
  0.796875   0.589844 0
  0.792969   0.589844 0
  0.792969   0.593750 0
  0.796875   0.593750 0
  0.660156   0.894531 0
  0.972656   0.851562 0
  0.792969   0.585938 0
  0.796875   0.585938 0
  0.792969   0.582031 0
  0.796875   0.582031 0
  0.796875   0.574219 0
  0.792969   0.574219 0
  0.792969   0.578125 0
  0.796875   0.578125 0
  0.792969   0.570312 0
  0.796875   0.570312 0
  0.792969   0.566406 0
  0.796875   0.566406 0
  0.660156   0.871094 0
  0.972656   0.828125 0
  0.792969   0.558594 0
  0.792969   0.562500 0
  0.796875   0.542969 0
  0.792969   0.539062 0
  0.796875   0.539062 0
  0.792969   0.535156 0
  0.796875   0.535156 0
  0.660156   0.839844 0
  0.972656   0.796875 0
  0.792969   0.527344 0
  0.792969   0.531250 0
  0.796875   0.511719 0
  0.792969   0.511719 0
  0.664062   0.816406 0
  0.976562   0.773438 0
  0.792969   0.507812 0
  0.796875   0.507812 0
  0.792969   0.503906 0
  0.796875   0.503906 0
  0.785156   1.000000 0
  0.785156   0.996094 0
  0.917969   0.691406 0
  0.605469   0.734375 0
  0.789062   0.972656 0
  0.785156   0.972656 0
  0.785156   0.968750 0
  0.785156   0.964844 0
  0.917969   0.660156 0
  0.605469   0.703125 0
  0.785156   0.937500 0
  0.785156   0.933594 0
  0.781250   0.933594 0
  0.914062   0.628906 0
  0.601562   0.671875 0
  0.789062   0.917969 0
  0.785156   0.914062 0
  0.785156   0.917969 0
  0.789062   0.886719 0
  0.785156   0.886719 0
  0.785156   0.882812 0
  0.785156   0.878906 0
  0.949219   0.992188 0
  0.949219   0.996094 0
  0.949219   1.000000 0
  0.785156   0.851562 0
  0.781250   0.847656 0
  0.785156   0.847656 0
  0.914062   0.542969 0
  0.601562   0.585938 0
  0.945312   0.980469 0
  0.949219   0.984375 0
  0.527344   0.707031 0
  0.839844   0.664062 0
  0.789062   0.832031 0
  0.785156   0.832031 0
  0.785156   0.828125 0
  0.949219   0.976562 0
  0.949219   0.968750 0
  0.949219   0.972656 0
  0.949219   0.949219 0
  0.636719   0.992188 0
  0.789062   0.800781 0
  0.785156   0.800781 0
  0.785156   0.796875 0
  0.785156   0.792969 0
  0.945312   0.917969 0
  0.632812   0.960938 0
  0.949219   0.917969 0
  0.636719   0.960938 0
  0.785156   0.769531 0
  0.949219   0.894531 0
  0.636719   0.937500 0
  0.789062   0.746094 0
  0.785156   0.746094 0
  0.785156   0.742188 0
  0.785156   0.738281 0
  0.945312   0.863281 0
  0.632812   0.906250 0
  0.949219   0.863281 0
  0.636719   0.906250 0
  0.789062   0.714844 0
  0.785156   0.714844 0
  0.949219   0.851562 0
  0.636719   0.894531 0
  0.785156   0.710938 0
  0.785156   0.707031 0
  0.789062   0.691406 0
  0.785156   0.691406 0
  0.945312   0.832031 0
  0.632812   0.875000 0
  0.785156   0.687500 0
  0.785156   0.683594 0
  0.949219   0.808594 0
  0.636719   0.851562 0
  0.789062   0.660156 0
  0.785156   0.660156 0
  0.785156   0.656250 0
  0.785156   0.652344 0
  0.785156   0.648438 0
  0.789062   0.644531 0
  0.785156   0.644531 0
  0.789062   0.640625 0
  0.789062   0.636719 0
  0.785156   0.640625 0
  0.785156   0.636719 0
  0.945312   0.777344 0
  0.632812   0.820312 0
  0.949219   0.777344 0
  0.636719   0.820312 0
  0.785156   0.632812 0
  0.789062   0.632812 0
  0.789062   0.628906 0
  0.785156   0.628906 0
  0.949219   0.765625 0
  0.636719   0.808594 0
  0.789062   0.625000 0
  0.789062   0.621094 0
  0.785156   0.625000 0
  0.785156   0.621094 0
  0.785156   0.617188 0
  0.789062   0.617188 0
  0.789062   0.613281 0
  0.785156   0.613281 0
  0.652344   0.917969 0
  0.964844   0.875000 0
  0.789062   0.605469 0
  0.785156   0.609375 0
  0.785156   0.605469 0
  0.785156   0.601562 0
  0.789062   0.601562 0
  0.789062   0.597656 0
  0.785156   0.597656 0
  0.789062   0.593750 0
  0.789062   0.589844 0
  0.785156   0.593750 0
  0.785156   0.589844 0
  0.656250   0.894531 0
  0.968750   0.851562 0
  0.785156   0.585938 0
  0.789062   0.585938 0
  0.789062   0.582031 0
  0.785156   0.582031 0
  0.949219   0.722656 0
  0.636719   0.765625 0
  0.789062   0.578125 0
  0.789062   0.574219 0
  0.785156   0.578125 0
  0.785156   0.574219 0
  0.785156   0.570312 0
  0.789062   0.570312 0
  0.789062   0.566406 0
  0.785156   0.566406 0
  0.789062   0.562500 0
  0.789062   0.558594 0
  0.785156   0.562500 0
  0.785156   0.558594 0
  0.652344   0.863281 0
  0.964844   0.820312 0
  0.785156   0.554688 0
  0.785156   0.550781 0
  0.789062   0.535156 0
  0.789062   0.531250 0
  0.789062   0.527344 0
  0.785156   0.531250 0
  0.785156   0.527344 0
  0.652344   0.832031 0
  0.964844   0.789062 0
  0.785156   0.523438 0
  0.785156   0.519531 0
  0.789062   0.503906 0
  0.785156   0.503906 0
  0.656250   0.808594 0
  0.968750   0.765625 0
  0.777344   0.988281 0
  0.910156   0.683594 0
  0.597656   0.726562 0
  0.781250   0.964844 0
  0.777344   0.964844 0
  0.777344   0.960938 0
  0.777344   0.957031 0
  0.910156   0.652344 0
  0.597656   0.695312 0
  0.773438   0.925781 0
  0.777344   0.929688 0
  0.777344   0.925781 0
  0.906250   0.621094 0
  0.593750   0.664062 0
  0.777344   0.906250 0
  0.777344   0.910156 0
  0.781250   0.910156 0
  0.777344   0.878906 0
  0.781250   0.878906 0
  0.777344   0.871094 0
  0.777344   0.875000 0
  0.945312   1.000000 0
  0.945312   0.996094 0
  0.941406   1.000000 0
  0.941406   0.996094 0
  0.937500   0.996094 0
  0.937500   1.000000 0
  0.941406   0.992188 0
  0.945312   0.992188 0
  0.945312   0.988281 0
  0.945312   0.984375 0
  0.941406   0.988281 0
  0.941406   0.984375 0
  0.773438   0.839844 0
  0.777344   0.839844 0
  0.777344   0.843750 0
  0.906250   0.535156 0
  0.593750   0.578125 0
  0.941406   0.976562 0
  0.945312   0.976562 0
  0.945312   0.972656 0
  0.937500   0.972656 0
  0.519531   0.699219 0
  0.832031   0.656250 0
  0.777344   0.820312 0
  0.781250   0.824219 0
  0.777344   0.824219 0
  0.945312   0.968750 0
  0.945312   0.960938 0
  0.941406   0.968750 0
  0.941406   0.941406 0
  0.628906   0.984375 0
  0.781250   0.792969 0
  0.777344   0.792969 0
  0.945312   0.929688 0
  0.632812   0.972656 0
  0.777344   0.789062 0
  0.777344   0.785156 0
  0.937500   0.910156 0
  0.625000   0.953125 0
  0.941406   0.910156 0
  0.628906   0.953125 0
  0.777344   0.761719 0
  0.945312   0.886719 0
  0.632812   0.929688 0
  0.941406   0.886719 0
  0.628906   0.929688 0
  0.777344   0.738281 0
  0.781250   0.738281 0
  0.945312   0.875000 0
  0.632812   0.917969 0
  0.777344   0.730469 0
  0.777344   0.734375 0
  0.941406   0.855469 0
  0.628906   0.898438 0
  0.937500   0.855469 0
  0.625000   0.898438 0
  0.777344   0.707031 0
  0.781250   0.707031 0
  0.945312   0.843750 0
  0.632812   0.886719 0
  0.941406   0.843750 0
  0.628906   0.886719 0
  0.777344   0.699219 0
  0.777344   0.703125 0
  0.781250   0.683594 0
  0.777344   0.683594 0
  0.937500   0.824219 0
  0.625000   0.867188 0
  0.777344   0.679688 0
  0.777344   0.675781 0
  0.945312   0.800781 0
  0.632812   0.843750 0
  0.941406   0.800781 0
  0.628906   0.843750 0
  0.781250   0.652344 0
  0.777344   0.652344 0
  0.945312   0.789062 0
  0.632812   0.832031 0
  0.777344   0.648438 0
  0.781250   0.648438 0
  0.777344   0.644531 0
  0.781250   0.636719 0
  0.777344   0.636719 0
  0.777344   0.640625 0
  0.781250   0.640625 0
  0.644531   0.941406 0
  0.957031   0.898438 0
  0.777344   0.632812 0
  0.781250   0.632812 0
  0.777344   0.628906 0
  0.781250   0.628906 0
  0.937500   0.769531 0
  0.625000   0.812500 0
  0.941406   0.769531 0
  0.628906   0.812500 0
  0.781250   0.621094 0
  0.777344   0.621094 0
  0.777344   0.625000 0
  0.781250   0.625000 0
  0.941406   0.757812 0
  0.628906   0.800781 0
  0.777344   0.617188 0
  0.781250   0.617188 0
  0.777344   0.613281 0
  0.781250   0.613281 0
  0.781250   0.605469 0
  0.777344   0.605469 0
  0.777344   0.609375 0
  0.781250   0.609375 0
  0.644531   0.910156 0
  0.957031   0.867188 0
  0.945312   0.746094 0
  0.632812   0.789062 0
  0.777344   0.601562 0
  0.777344   0.597656 0
  0.781250   0.597656 0
  0.945312   0.734375 0
  0.632812   0.777344 0
  0.781250   0.589844 0
  0.777344   0.589844 0
  0.777344   0.593750 0
  0.781250   0.593750 0
  0.777344   0.585938 0
  0.781250   0.585938 0
  0.777344   0.582031 0
  0.781250   0.582031 0
  0.648438   0.886719 0
  0.960938   0.843750 0
  0.945312   0.851562 0
  0.644531   0.886719 0
  0.957031   0.843750 0
  0.781250   0.574219 0
  0.777344   0.574219 0
  0.777344   0.578125 0
  0.781250   0.578125 0
  0.945312   0.847656 0
  0.632812   0.890625 0
  0.644531   0.882812 0
  0.957031   0.839844 0
  0.941406   0.714844 0
  0.628906   0.757812 0
  0.777344   0.570312 0
  0.781250   0.570312 0
  0.777344   0.566406 0
  0.781250   0.566406 0
  0.777344   0.550781 0
  0.781250   0.550781 0
  0.644531   0.855469 0
  0.957031   0.812500 0
  0.777344   0.542969 0
  0.777344   0.546875 0
  0.781250   0.527344 0
  0.949219   0.796875 0
  0.648438   0.832031 0
  0.960938   0.789062 0
  0.945312   0.796875 0
  0.632812   0.839844 0
  0.644531   0.832031 0
  0.957031   0.789062 0
  0.777344   0.523438 0
  0.781250   0.523438 0
  0.777344   0.519531 0
  0.781250   0.519531 0
  0.945312   0.792969 0
  0.632812   0.835938 0
  0.644531   0.828125 0
  0.957031   0.785156 0
  0.644531   0.824219 0
  0.957031   0.781250 0
  0.777344   0.511719 0
  0.777344   0.515625 0
  0.769531   0.980469 0
  0.902344   0.675781 0
  0.589844   0.718750 0
  0.773438   0.957031 0
[...]
POINT_DATA 66049
SCALARS scalar_value float 1
LOOKUP_TABLE default
-0.725799
-0.724894
-0.720859
-0.719962
-0.710013
-0.710891
-0.715889
-0.715002
-1.06092
-0.986138
-0.705864
-0.700808
-0.699955
-0.689787
-0.690612
-0.695724
-0.694884
-0.685472
-0.684663
-0.680305
-0.679513
-1.03807
-0.961416
-0.669138
-0.669891
-0.675111
-0.674338
-1.03125
-0.953206
-0.664645
-0.663913
-0.659375
-0.658664
-0.648098
-0.648761
-0.65408
-0.653392
-0.64342
-0.642783
-0.638058
-0.637447
-1.00933
-0.928154
-0.627271
-0.632674
-0.605055
-0.600001
-0.599604
-0.594505
-0.594141
-0.980552
-0.894241
-0.583481
-0.588998
-0.561196
-0.561346
-0.958415
-0.868323
-0.555804
-0.55569
-0.55026
-0.550184
-1.11888
-1.11498
-0.777881
-0.907643
-1.0911
-1.09153
-1.08762
-1.08372
-0.741065
-0.886124
-1.05634
-1.05242
-1.05289
-0.70377
-0.868095
-1.03627
-1.03283
-1.03675
-1.00479
-1.00531
-1.00137
-0.997428
-1.09856
-1.10247
-1.10638
-0.969714
-0.966339
-0.965737
-0.597453
-0.707547
-1.08692
-1.09072
-0.919869
-0.754829
-0.949147
-0.949774
-0.945767
-1.08286
-1.07497
-1.07892
-1.05518
-1.12827
-0.916816
-0.917519
-0.91345
-0.909372
-1.02335
-1.09794
-1.02322
-1.09753
-0.884682
-0.998984
-1.07493
-0.858694
-0.859543
-0.855301
-0.851044
-0.966424
-1.04586
-0.966275
-1.04538
-0.824202
-0.825127
-0.95388
-1.03447
-0.820739
-0.81633
-0.797502
-0.79847
-0.933211
-1.01708
-0.793945
-0.789395
-0.907762
-0.99533
-0.760542
-0.761534
-0.756792
-0.75202
-0.747217
-0.7414
-0.742385
-0.736542
-0.731653
-0.737522
-0.732628
-0.873687
-0.968514
-0.873511
-0.967718
-0.727703
-0.726735
-0.721787
-0.722747
-0.860506
-0.957553
-0.716808
-0.7118
-0.71776
-0.712741
-0.707691
-0.706761
-0.701693
-0.70261
-1.05445
-0.978124
-0.691468
-0.697498
-0.692355
-0.687183
-0.686312
-0.681127
-0.68198
-0.675914
-0.670674
-0.676748
-0.671486
-1.0318
-0.95329
-0.666197
-0.665407
-0.660113
-0.66088
-0.812038
-0.92112
-0.654794
-0.64945
-0.655536
-0.650167
-0.644772
-0.644083
-0.638693
-0.639353
-0.633281
-0.627848
-0.633911
-0.628448
-1.00338
-0.919922
-0.622963
-0.617459
-0.594883
-0.58934
-0.583786
-0.589695
-0.584103
-0.974973
-0.88587
-0.578502
-0.572894
-0.550338
-0.550417
-0.953128
-0.859816
-1.10804
-0.76937
-0.905365
-1.08416
-1.08461
-1.08071
-1.0768
-0.732335
-0.885391
-1.04603
-1.04945
-1.04554
-0.694825
-0.854564
-1.02598
-1.0299
-1.0294
-0.998517
-0.997969
-0.990647
-0.994583
-1.10651
-1.1026
-1.10665
-1.10274
-1.10289
-1.1068
-1.09883
-1.09869
-1.09477
-1.09085
-1.09491
-1.09098
-0.95965
-0.959013
-0.962984
-0.587899
-0.693007
-1.08312
-1.08298
-1.07905
-1.07933
-0.919587
-0.746745
-0.939075
-0.94241
-0.943076
-1.0751
-1.0672
-1.07524
-1.0475
-1.12131
-0.910109
-0.910858
-1.03538
-1.10938
-0.906792
-0.902716
-1.01561
-1.09118
-1.01545
-1.09078
-0.878022
-0.990994
-1.06792
-0.991147
-1.06836
-0.852842
-0.851933
-0.978743
-1.05684
-0.844319
-0.848589
-0.958334
-1.0391
-0.958507
-1.03958
-0.818286
-0.817295
-0.94573
-1.02779
-0.945896
-1.02831
-0.809435
-0.813872
-0.790402
-0.791437
-0.925178
-1.01116
-0.786871
-0.782278
-0.899426
-0.989039
-0.899607
-0.989711
-0.753042
-0.754098
-0.8866
-0.978722
-0.749293
-0.748238
-0.744455
-0.733637
-0.734679
-0.739584
-0.738536
-1.07779
-1.00279
-0.729742
-0.728705
-0.72477
-0.723741
-0.865424
-0.963425
-0.865219
-0.962603
-0.713716
-0.714726
-0.719765
-0.718745
-0.85216
-0.952656
-0.709653
-0.708655
-0.704546
-0.703561
-0.693276
-0.694231
-0.699406
-0.698434
-1.04805
-0.970129
-0.838812
-0.941836
-0.689024
-0.683784
-0.682865
-0.825565
-0.93203
-0.67233
-0.673207
-0.678511
-0.677613
-0.667872
-0.667018
-0.662505
-0.661677
-1.02561
-0.945181
-0.954033
-1.02617
-0.945301
-0.650911
-0.651685
-0.65711
-0.656308
-0.949885
-1.03138
-1.02255
-0.941133
-0.803477
-0.917183
-0.646233
-0.645488
-0.640754
-0.64004
-0.618593
-0.618015
-0.997542
-0.911708
-0.607384
-0.612998
-0.584432
-0.894991
-0.975736
-0.88599
-0.89516
-0.985588
-0.976493
-0.886123
-0.57909
-0.578791
-0.573398
-0.573141
-0.890885
-0.982149
-0.97302
-0.881825
-0.969556
-0.877518
-0.561995
-0.567699
-1.10113
-0.760865
-0.903622
-1.07726
-1.07772
-1.07382
-1.06992
-1.04262
-1.03872
-1.03922
-0.685853
-0.839887
-1.02258
-1.01919
-1.0231
-0.991216
-0.991791
-0.987867
-0.984538
-0.983939
-0.617716
-0.736987
-1.09538
-1.0993
-1.09913
-1.09897
-1.09521
-1.09506
-1.08327
-1.08343
-1.0872
-1.08736
-1.09129
-1.09113
-0.956339
-0.953051
-0.952377
-1.07144
-1.07555
-1.07539
-0.905997
-0.738646
-0.935764
-0.936471
-1.05957
-1.13332
-0.932478
-0.928478
-0.548596
-0.634732
-1.03984
-1.11437
-0.903502
-0.904302
-1.02783
-1.10292
-1.02767
-1.10254
-0.900239
-0.896166
-1.00789
-1.08446
-1.00771
-1.08407
-0.871471
-0.983332
-1.06185
-0.983155
-1.06141
-0.845272
-0.846246
-0.970866
-1.05045
-0.841981
-0.837695
-0.950613
-1.03338
-0.950414
-1.0329
-0.810469
-0.811531
-0.937742
-1.02172
-0.937934
-1.02225
-0.807087
-0.802618
-0.783354
-0.784462
-0.917169
-1.00535
-0.912531
-1.00071
-0.77985
-0.775208
-0.891265
-0.983553
-0.891475
-0.984239
-0.745541
-0.746664
-0.878389
-0.973426
-0.740667
-0.773998
-0.647308
-0.735758
-0.741787
-0.736874
-0.731925
-0.730815
-0.725836
-0.726939
-1.0712
-0.994922
-0.720822
-0.715773
-0.721916
-0.716857
-0.857185
-0.958538
-0.856951
-0.95769
-0.711761
-0.710688
-0.705568
-0.706628
-0.843837
-0.947987
-0.700413
-0.695223
-0.701458
-0.696252
-0.691009
-0.689998
-0.684738
-0.68573
-1.04173
-0.962152
-0.830402
-0.937389
-0.674118
-0.680415
-0.675065
-0.817096
-0.927861
-0.669681
-0.668759
-0.663367
-0.664263
-0.657944
-0.65249
-0.658812
-0.653328
-0.946074
-1.02008
-0.937235
-1.01952
-0.93709
-0.647814
-0.647008
-0.641497
-0.64227
-0.941912
-1.02527
-1.01651
-0.933052
-0.794932
-0.913598
-0.631097
-0.607907
-0.608452
-0.991839
-0.903515
-0.602738
-0.597005
-0.573663
-0.970347
-0.877666
-0.886983
-0.980163
-0.97113
-0.877827
-0.567919
-0.56217
-0.568148
-0.562351
-0.882691
-0.976787
-0.964318
-0.869186
-0.55655
-0.550748
-1.11765
-1.12156
-1.09424
-0.752361
-0.902476
-1.07039
-1.07087
-1.06697
-1.06308
-1.03247
-1.03584
-1.03194
-0.676847
-0.825205
-1.01247
-1.01637
-1.01582
-0.977942
-0.977313
-0.981229
-0.608247
-0.722411
-1.09146
-1.08753
-1.09163
-1.0877
-1.08789
-1.09182
-1.08377
-1.0836
-1.07966
-1.07572
-1.07983
-1.07589
-0.94655
-0.945836
-0.949788
-1.06386
-1.13796
-0.891434
-0.73052
-0.731297
-0.929218
-0.92997
-1.05196
-1.12629
-0.925986
-0.921994
-1.0322
-1.10746
-0.897005
-0.897859
-1.01998
-1.09572
-1.02016
-1.0961
-0.893801
-0.889731
-1.00019
-1.07779
-0.999983
-1.07741
-0.865037
-0.975339
-1.05497
-0.97554
-1.0554
-0.619413
-0.839762
-0.838717
-0.963012
-1.04412
-0.83118
-0.835482
-0.942519
-1.02679
-0.942745
-1.02727
-0.804866
-0.803727
-0.929777
-1.01576
-0.929997
-1.01629
-0.795881
-0.800388
-0.776359
-0.777545
-0.904476
-0.995063
-0.909186
-0.999657
-0.77288
-0.768181
-0.749025
-0.747825
-1.08702
-1.01142
-0.883129
-0.978225
-0.883368
-0.978925
-0.738028
-0.739222
-0.744142
-0.742945
-0.870202
-0.968308
-0.734262
-0.733073
-0.729264
-0.759357
-0.638006
-0.728081
-0.717981
-0.719146
-0.724225
-0.72305
-1.06466
-0.987072
-0.714028
-0.712874
-0.708868
-0.707728
-0.848971
-0.95387
-0.848706
-0.952996
-0.69732
-0.698429
-0.703669
-0.702543
-0.835536
-0.943565
-0.69315
-0.692059
-0.68783
-0.68676
-0.67605
-0.677074
-0.682472
-0.681423
-1.03549
-0.954196
-0.822013
-0.933221
-0.671638
-0.666165
-0.665195
-0.808645
-0.924006
-0.654201
-0.655109
-0.660655
-0.659714
-0.649528
-0.648654
-0.643914
-0.643075
-1.01353
-0.92902
-0.938138
-1.0141
-0.929191
-0.631829
-0.632592
-0.638268
-0.637467
-0.933962
-1.01925
-1.01058
-0.924993
-0.786401
-0.910404
-0.621152
-0.597979
-0.597482
-0.986277
-0.895342
-0.586277
-0.592135
-0.562537
-0.56273
-0.965136
-0.869363
-0.87883
-0.974903
-0.965945
-0.869552
-0.556827
-0.556687
-0.550923
-0.550835
-0.874521
-0.971598
-0.959274
-0.860876
-1.12202
-1.11811
-1.11857
-0.780759
-0.918858
-0.780342
-0.917571
-1.11467
-1.11076
-1.08738
-0.743852
-0.902
-1.06356
-1.06405
-1.06017
-1.05628
-1.02911
-1.02523
-1.02577
-0.667796
-0.810534
-1.00913
-1.00582
-1.0097
-1.09966
-1.10357
-1.10376
-1.10767
-1.10748
-0.974678
-0.971438
-0.970775
-0.598703
-0.707852
-1.08042
-1.08435
-1.08415
-1.08396
-1.08022
-1.08002
-1.06838
-1.07627
-1.07608
-0.943339
-0.940157
-1.0563
-1.13087
-0.922781
-0.92358
-1.04437
-1.11928
-0.919607
-0.915626
-1.02458
-1.10058
-0.890628
-0.89154
-1.01252
-1.08931
-1.01231
-1.08895
-0.887487
-0.883422
-0.992511
-1.07117
-0.992285
-1.0708
-0.85873
-0.967774
-1.04902
-0.967548
-1.0486
-0.832277
-0.833399
-0.955183
-1.03787
-0.829102
-0.824781
-0.934904
-1.02125
-0.93465
-1.02077
-0.797071
-0.798294
-0.921839
-1.0099
-0.922086
-1.01043
-0.793777
-0.789227
-0.769413
-0.770684
-0.901231
-0.994099
-0.896447
-0.98956
-0.765957
-0.761193
-0.756389
-0.750264
-0.751545
-1.08742
-1.01158
-1.02036
-1.09646
-1.08782
-1.01174
-0.745381
-0.740457
-0.746661
-0.741735
-1.01634
-1.0927
-1.08034
-1.00366
-0.875019
-0.973067
-0.875289
-0.97378
-0.735493
-0.730488
-0.731757
-0.862042
-0.963384
-0.725442
-0.744726
-0.62857
-0.720354
-0.726704
-0.721607
-0.716466
-0.715224
-0.710052
-0.711281
-1.05819
-0.979244
-0.704838
-0.699582
-0.706052
-0.700779
-0.840783
-0.949437
-0.840487
-0.948538
-0.695462
-0.694283
-0.688943
-0.690101
-0.827259
-0.939413
-0.683562
-0.678139
-0.684696
-0.673758
-0.672677
-0.667175
-0.668226
-1.02934
-0.946263
-0.813643
-0.929358
-0.661634
-0.656055
-0.662654
-0.657041
-0.65139
-0.65044
-0.644789
-0.645701
-0.639104
-0.633387
-0.639976
-0.634216
-0.930228
-1.00824
-0.92117
-1.00766
-0.920971
-0.628423
-0.627638
-0.621861
-0.6226
-0.926038
-1.01334
-1.00477
-0.916956
-0.610867
-0.586691
-0.587121
-0.980868
-0.887194
-0.581141
-0.575148
-0.551012
-0.551103
-0.96012
-0.861082
-0.870704
-0.969821
-0.960955
-0.861301
-1.11169
-1.11123
-0.772049
-0.915708
-0.772499
-0.917023
-1.1039
-1.10779
-1.08056
-0.735335
-0.902279
-1.05678
-1.05729
-1.05341
-1.04954
-1.01915
-1.02245
-1.01859
-0.658691
-0.795875
-0.999241
-1.00311
-1.00252
-1.10788
-1.10397
-1.10809
-1.10418
-1.1044
-1.10831
-1.10026
-1.10005
-1.09614
-1.09221
-1.09635
-0.965033
-0.964334
-0.968222
-0.58907
-0.693309
-1.07648
-1.07669
-1.07275
-1.07297
-1.07691
-1.06088
-1.13574
-0.933881
-0.937004
-0.627726
-1.04876
-1.1238
-0.916464
-0.917313
-1.0368
-1.1123
-0.913353
-0.909384
-1.01699
-1.09374
-0.884381
-0.885356
-1.00467
-1.08222
-1.0049
-1.08257
-0.88131
-0.877251
-0.984864
-1.0646
-0.852562
-0.959783
-1.04229
-0.960035
-1.04271
-0.827166
-0.82596
-0.947382
-1.03171
-0.818507
-0.82285
-0.926811
-1.01486
-0.95223
-0.859718
-0.927092
-1.01533
-0.79182
-0.790505
-0.913928
-1.00416
-0.914205
-1.00469
-0.782657
-0.787257
-0.762512
-0.763875
-0.888446
-0.984204
-0.893307
-0.98868
-0.759078
-0.757712
-0.754238
-0.752869
-0.743058
-0.744426
-0.749354
-0.747985
-1.08073
-1.00384
-1.01274
-1.08966
-1.08112
-1.00403
-0.739452
-0.738087
-0.734433
-0.733071
-1.00871
-1.08594
-1.07371
-0.995927
-0.866938
-0.968092
-0.867239
-0.968816
-0.722905
-0.724253
-0.728011
-0.853909
-0.958668
-0.719091
-0.717754
-0.713882
-0.730101
-0.618978
-0.712557
-0.702023
-0.703317
-0.708623
-0.707313
-1.05178
-0.971441
-0.697961
-0.696687
-0.692558
-0.691305
-0.832622
-0.945258
-0.832293
-0.944337
-0.680403
-0.681606
-0.687106
-0.685877
-0.819005
-0.935553
-0.676059
-0.674885
-0.669323
-0.658069
-0.659142
-0.664826
-0.663717
-1.02327
-0.938354
-0.805294
-0.92583
-0.653414
-0.65238
-0.647645
-0.646652
-0.624176
-0.623371
-1.0019
-0.912947
-0.922346
-1.00249
-0.913174
-0.611536
-0.612235
-0.618221
-0.617468
-0.918142
-1.00754
-0.999073
-0.908945
-0.600182
-0.575824
-0.57548
-0.975624
-0.879071
-0.563568
-0.5697
-1.10437
-1.10484
-0.764244
-0.91568
-0.763761
-0.914351
-1.10095
-1.09706
-1.05005
-1.05057
-1.04671
-1.04285
-1.01587
-1.0126
-0.64952
-0.781227
-0.995985
-0.99275
-0.996604
-1.09703
-1.10095
-1.10071
-1.10048
-1.0968
-1.09657
-1.08479
-1.08872
-1.08895
-1.09287
-1.09265
-0.96187
-0.958736
-0.957999
-0.579334
-0.67878
-1.06554
-1.14053
-1.0653
-1.14024
-1.05341
-1.12858
-0.930791
-1.04124
-1.11675
-0.910276
-0.911181
-1.02926
-1.10535
-0.907235
-0.90328
-1.02505
-0.945072
-1.00968
-1.08724
-1.00942
-1.08693
-0.878277
-0.879321
-0.997304
-1.07587
-0.997049
-1.07554
-0.875282
-0.871229
-0.977246
-1.05808
-0.846544
-0.952326
-1.03647
-0.952047
-1.03607
-0.819774
-0.821073
-0.939609
-1.02563
-0.816735
-0.812366
-0.919002
-1.00905
-0.784032
-0.785448
-0.906048
-0.998535
-0.906355
-0.999061
-0.780832
-0.776175
-0.755652
-0.757114
-0.880476
-0.979005
-0.75077
-0.745842
-0.752235
-0.747308
-0.742332
-0.740867
-0.735844
-0.737306
-1.0741
-0.996131
-1.00514
-1.08291
-1.07447
-0.996345
-0.730772
-0.725651
-0.732229
-0.727101
-1.0011
-1.07922
-1.06713
-0.988218
-0.859219
-0.964044
-0.720479
-0.715258
-0.716687
-0.845804
-0.954173
-0.709985
-0.704662
-0.711401
-0.706061
-0.700668
-0.699288
-0.693862
-0.69522
-1.04544
-0.963662
-0.688386
-0.682859
-0.68972
-0.684166
-0.824487
-0.941352
-0.824124
-0.940411
-0.678559
-0.677283
-0.671657
-0.672901
-0.810773
-0.932009
-0.665983
-0.660262
-0.667191
-0.655622
-0.654494
-0.648682
-0.649765
-1.01731
-0.930471
-0.643863
-0.637916
-0.612966
-0.613729
-0.914494
-0.996861
-0.905205
-0.996275
-0.904949
-0.607595
-0.606893
-0.600793
-0.601432
-0.910276
-1.00186
-0.993511
-0.900961
-0.595242
-0.589031
-0.563795
-0.56403
-0.970556
-0.870975
-0.557758
-0.551484
-1.12137
-1.12528
-0.783625
-0.92559
-1.09801
-1.09753
-0.755473
-0.913533
-0.75599
-0.914858
-1.09025
-1.09413
-1.04338
-1.04391
-1.04007
-1.03622
-1.00613
-1.00936
-0.640268
-0.766591
-0.986353
-0.990187
-0.989539
-1.09311
-1.08919
-1.09336
-1.08943
-1.08969
-1.09361
-1.0855
-1.08526
-1.08132
-1.07738
-1.08157
-0.952558
-0.951781
-0.955631
-0.569482
-0.664262
-1.05788
-1.13302
-1.05814
-1.13328
-0.928595
-0.927734
-1.03375
-1.10973
-1.03401
-1.11002
-0.904232
-0.905196
-1.02174
-1.09842
-0.901267
-0.897329
-1.01895
-0.936957
-1.00217
-1.08046
-1.00189
-1.08017
-0.872329
-0.873447
-0.989461
-1.06891
-0.98974
-1.06923
-0.869418
-0.865372
-0.96966
-1.05163
-0.840691
-0.944343
-1.02992
-0.94465
-1.03031
-0.815133
-0.813732
-0.931868
-1.01964
-0.806369
-0.810768
-0.911227
-1.00335
-0.911569
-1.00381
-0.779182
-0.777655
-0.898201
-0.993041
-0.898539
-0.993562
-0.774504
-0.765008
-0.760188
-0.758626
-1.09
-1.01297
-0.885416
-0.983405
-0.748825
-0.750396
-0.755318
-0.75375
-0.872539
-0.973972
-0.745421
-0.743849
-0.740392
-0.738821
-0.728606
-0.730169
-0.735309
-0.733741
-1.06751
-0.988446
-0.997569
-1.0762
-1.06788
-0.988684
-0.724972
-0.723417
-0.719718
-0.718173
-0.993518
-1.07254
-1.06424
-0.984614
-1.06061
-0.980536
-0.851231
-0.959476
-0.707517
-0.709033
-0.712873
-0.837727
-0.949916
-0.703601
-0.702105
-0.698111
-0.696636
-0.685529
-0.68695
-0.69256
-0.69111
-1.03917
-0.955912
-0.681282
-0.679891
-0.675555
-0.674199
-0.816377
-0.937736
-0.815981
-0.93678
-0.662652
-0.663929
-0.66977
-0.668452
-0.658033
-0.6568
-0.650898
-0.638949
-0.64003
-0.646082
-0.644947
-1.01145
-0.922618
-0.63393
-0.627784
-0.602796
-0.602099
-0.990783
-0.896979
-0.906675
-0.991372
-0.897265
-0.589559
-0.59011
-0.596466
-0.595841
-0.902443
-0.996296
-0.98809
-0.893006
-0.583734
-0.57734
-0.551683
-0.551583
-0.965677
-0.862908
-1.12575
-1.12184
-1.12622
-1.12231
-1.11841
-1.11452
-0.775578
-0.923703
-1.09073
-1.09121
-0.747731
-0.914581
-0.747181
-0.913276
-1.08734
-1.08348
-1.06754
-1.06804
-1.06419
-1.03677
-1.03732
-1.03349
-1.02967
-1.00293
-0.999755
-0.630921
-0.751968
-0.983191
-0.980056
-0.983869
-1.10145
-1.10172
-1.10536
-1.10563
-1.10954
-1.10927
-1.08237
-1.0863
-1.08602
-1.08576
-1.08209
-1.08183
-1.07
-1.07816
-1.07789
-0.949517
-0.94651
-0.94569
-0.559498
-0.649755
-1.05076
-1.12605
-1.05048
-1.12581
-0.922643
-1.02629
-1.10274
-1.02657
-1.103
-0.898344
-0.899374
-1.01425
-1.09154
-0.895465
-0.891545
-1.01296
-0.92886
-0.994687
-1.07373
-0.99438
-1.07345
-0.866552
-0.867753
-0.982207
-1.06262
-0.981902
-1.06232
-0.863733
-0.859696
-0.842001
-0.843339
-0.962108
-1.04523
-0.839192
-0.835019
-0.937008
-1.02423
-0.936672
-1.02385
-0.807844
-0.809358
-0.924162
-1.01374
-0.804962
-0.800529
-0.903863
-0.998209
-0.903488
-0.997759
-0.771377
-0.773025
-0.890389
-0.98768
-0.89076
-0.988193
-0.768275
-0.766615
-0.761803
-0.756939
-0.752022
-0.758616
-0.753705
-1.08323
-1.00539
-0.87756
-0.978283
-0.748736
-0.747049
-0.742021
-0.74371
-0.864636
-0.969113
-0.736935
-0.731791
-0.738623
-0.733476
-0.728266
-0.726588
-0.721323
-0.722994
-1.06098
-0.980788
-0.990029
-1.06953
-1.06133
-0.981051
-0.715998
-0.710611
-0.717656
-0.712254
-0.985969
-1.06592
-1.05773
-0.97697
-1.05415
-0.972882
-0.843277
-0.955121
-0.705161
-0.699648
-0.701252
-0.82968
-0.945911
-0.694073
-0.688435
-0.695652
-0.689985
-0.684251
-0.682734
-0.676971
-0.678453
-1.03298
-0.948191
-0.671148
-0.665265
-0.672589
-0.666662
-0.808293
-0.934429
-0.807861
-0.933464
-0.660673
-0.659323
-0.653324
-0.654624
-0.64727
-0.641163
-0.648516
-0.642351
-0.932511
-1.02046
-1.01241
-0.923199
-0.932183
-1.01194
-0.922902
-0.63613
-0.635004
-0.628795
-0.629857
-1.0057
-0.914796
-0.928341
-1.01709
-0.623532
-0.617161
-0.590685
-0.591285
-0.898891
-0.986024
-0.889357
-0.985434
-0.88904
-0.584743
-0.584229
-0.577755
-0.578184
-0.894645
-0.990861
-0.982816
-0.885083
-0.571614
-0.565038
-1.11546
-1.11499
-1.10768
-1.11157
-0.768158
-0.923005
-0.767539
-0.922194
-1.08445
-1.08396
-0.738875
-0.91329
-0.739459
-0.914414
-1.07724
-1.07674
-1.0806
-0.73055
-0.899392
-1.05754
-1.06086
-1.06137
-1.03023
-1.0308
-1.02699
-1.02318
-0.661966
-0.796003
-0.993475
-0.996602
-0.621461
-0.737357
-1.10981
-1.1059
-1.11009
-1.10647
-1.11037
-0.973871
-0.977658
-0.976949
-1.10227
-1.10199
-1.09807
-1.09415
-1.09835
-1.09443
-1.07843
-1.07871
-1.07477
-1.079
-1.06264
-1.13766
-0.940606
-0.939739
-0.943539
-0.549366
-0.635256
-1.0431
-1.11863
-1.0434
-1.11885
-0.916852
-1.01885
-1.09578
-1.01915
-1.09602
-0.89263
-0.89373
-1.00679
-1.08468
-0.889843
-0.885945
-1.00707
-0.920785
-0.987238
-1.06703
-0.986906
-1.06677
-0.860965
-0.862256
-0.974378
-1.05579
-0.974709
-1.05608
-0.858248
-0.85422
-0.837876
-0.836432
-0.954593
-1.03889
-0.829546
-0.833726
-0.929038
-1.01787
-0.929404
-1.01824
-0.803763
-0.802124
-0.916493
-1.00794
-0.794857
-0.799332
-0.895789
-0.992289
-0.896198
-0.992722
-0.766981
-0.765198
-0.882615
-0.982458
-0.88302
-0.982957
-0.755447
-0.762146
-0.760351
-0.752296
-0.750484
-0.747277
-0.745461
-1.07651
-0.997844
-0.869741
-0.973319
-0.735226
-0.737043
-0.742193
-0.740375
-0.856769
-0.964436
-0.731826
-0.730012
-0.726539
-0.724731
-0.713967
-0.715752
-0.721181
-0.719383
-1.05451
-0.97316
-0.982522
-1.06291
-1.05485
-0.973449
-0.94186
-0.938026
-0.938879
-0.942696
-1.04585
-0.963901
-0.969067
-1.05095
-1.04626
-0.964151
-0.673552
-0.824326
-0.918784
-0.91588
-0.914918
-0.810602
-0.668879
-0.939895
-1.0178
-0.930727
-0.936035
-1.02305
-0.940193
-1.02647
-1.01828
-0.930994
-0.888721
-0.887613
-0.88367
-0.75186
-0.629309
-0.606294
-0.721872
-1.1103
-1.11421
-1.11375
-1.10985
-1.09814
-1.10158
-1.10204
-1.10594
-0.856931
-0.855639
-0.852878
-0.851561
-0.847461
-1.08691
-1.09034
-0.880798
-0.979631
-0.971275
-0.87126
-0.881134
-0.980238
-0.971977
-0.871559
-0.876842
-0.977093
-1.08255
-1.07476
-1.07865
-1.07819
-1.07429
-0.830819
-0.82659
-0.828051
-0.832256
-0.649612
-0.559042
-1.05579
-1.05968
-1.0553
-1.05919
-0.846497
-0.95577
-0.947315
-0.836699
-0.598769
-1.0514
-1.04362
-1.04751
-1.04701
-1.04312
-0.842118
-0.952829
-0.941384
-0.827875
-0.796055
-0.791539
-0.793174
-0.797671
-1.04623
-1.11324
-1.03749
-0.59152
-0.584274
-1.02026
-1.02469
-1.02858
-1.02363
-1.02416
-1.02805
-0.811139
-0.924201
-0.801126
-1.13634
-1.06134
-1.07395
-0.822331
-0.816569
-0.812224
-0.818041
-0.813717
-1.01618
-1.01558
-1.01938
-0.767463
-0.893875
-1.01827
-1.09526
-1.02201
-1.09033
-1.0132
-1.02228
-1.09899
-1.09065
-1.01345
-0.963275
-0.966295
-0.962506
-0.899407
-0.727775
-0.935935
-0.932128
-0.961461
-1.04458
-0.965564
-1.04809
-1.03998
-0.956453
-0.965259
-1.04775
-1.03958
-0.956177
-0.664316
-0.809933
-0.909177
-0.913018
-0.795936
-0.659802
-0.635607
-0.759278
-0.744558
-0.624606
-0.87811
-0.882034
-0.704998
-0.737259