# vtk DataFile Version 2.0
Unstructured Grid by M++
ASCII
DATASET UNSTRUCTURED_GRID
POINTS 4072 float
  0.812500   0.625000 0
  0.953125   0.609375 0
  0.968750   0.609375 0
  0.875000   0.687500 0
  0.812500   0.937500 0
  0.859375   0.687500 0
  0.796875   0.937500 0
  0.968750   1.000000 0
  0.984375   0.984375 0
  0.968750   0.984375 0
  0.843750   0.656250 0
  0.875000   0.656250 0
  0.812500   0.906250 0
  0.859375   0.640625 0
  0.781250   0.984375 0
  0.843750   0.734375 0
  0.781250   0.968750 0
  0.843750   0.718750 0
  0.765625   0.968750 0
  0.828125   0.718750 0
  0.921875   0.593750 0
  0.859375   0.843750 0
  0.765625   1.000000 0
  0.828125   0.750000 0
  0.875000   0.796875 0
  0.890625   0.781250 0
  0.875000   0.781250 0
  0.921875   0.609375 0
  0.859375   0.859375 0
  0.984375   0.968750 0
  1.000000   0.968750 0
  1.000000   0.953125 0
  0.859375   0.734375 0
  0.796875   0.984375 0
  0.875000   0.734375 0
  0.812500   0.984375 0
  0.906250   0.953125 0
  0.968750   0.703125 0
  0.796875   0.750000 0
  0.812500   0.812500 0
  0.828125   0.796875 0
  0.781250   0.843750 0
  0.843750   0.593750 0
  0.953125   0.937500 0
  0.890625   0.625000 0
  0.828125   0.875000 0
  0.906250   0.625000 0
  0.843750   0.875000 0
  0.890625   0.609375 0
  0.828125   0.859375 0
  0.906250   0.609375 0
  0.843750   0.859375 0
  0.906250   0.593750 0
  0.843750   0.843750 0
  0.843750   0.765625 0
  0.859375   0.750000 0
  0.796875   1.000000 0
  0.937500   0.609375 0
  0.875000   0.859375 0
  0.765625   0.515625 0
  0.843750   0.640625 0
  0.843750   0.578125 0
  0.781250   0.828125 0
  0.843750   0.515625 0
  0.781250   0.765625 0
  1.000000   0.687500 0
  0.937500   0.937500 0
  0.828125   0.593750 0
  0.765625   0.843750 0
  0.828125   0.531250 0
  0.765625   0.781250 0
  0.765625   0.984375 0
  0.828125   0.734375 0
  0.812500   0.734375 0
  0.765625   0.765625 0
  0.781250   0.750000 0
  1.000000   0.656250 0
  0.937500   0.906250 0
  0.765625   0.750000 0
  0.968750   0.578125 0
  0.953125   0.593750 0
  0.953125   0.578125 0
  0.937500   0.593750 0
  0.875000   0.843750 0
  0.812500   0.796875 0
  0.875000   0.546875 0
  0.984375   0.953125 0
  0.984375   0.937500 0
  0.765625   0.562500 0
  0.937500   0.656250 0
  0.875000   0.906250 0
  0.765625   0.531250 0
  0.937500   0.625000 0
  0.875000   0.875000 0
  0.937500   0.859375 0
  1.000000   0.609375 0
  0.828125   0.687500 0
  0.765625   0.937500 0
  1.000000   0.781250 0
  0.812500   0.671875 0
  0.984375   0.765625 0
  0.828125   0.656250 0
  1.000000   0.750000 0
  0.937500   1.000000 0
  0.781250   0.515625 0
  0.953125   0.671875 0
  0.890625   0.921875 0
  0.781250   0.578125 0
  0.953125   0.984375 0
  0.984375   0.640625 0
  0.921875   0.890625 0
  0.968750   0.625000 0
  0.906250   0.875000 0
  0.812500   0.765625 0
  0.984375   0.859375 0
  1.000000   0.843750 0
  0.968750   0.859375 0
  0.843750   0.703125 0
  0.781250   0.953125 0
  0.843750   0.750000 0
  0.781250   1.000000 0
  0.843750   0.687500 0
  0.781250   0.937500 0
  0.828125   0.765625 0
  1.000000   0.859375 0
  0.828125   0.703125 0
  0.765625   0.953125 0
  0.968750   0.968750 0
  0.968750   0.953125 0
  0.796875   0.781250 0
  0.859375   0.531250 0
  0.968750   0.937500 0
  0.953125   0.968750 0
  0.781250   0.796875 0
  0.843750   0.546875 0
  0.953125   0.953125 0
  0.781250   0.812500 0
  0.953125   0.906250 0
  0.859375   0.781250 0
  0.859375   0.703125 0
  0.796875   0.953125 0
  0.859375   0.765625 0
  1.000000   0.734375 0
  0.937500   0.984375 0
  0.828125   0.578125 0
  0.765625   0.828125 0
  1.000000   0.796875 0
  0.828125   0.640625 0
  0.984375   0.734375 0
  0.921875   0.984375 0
  0.812500   0.640625 0
  0.890625   0.953125 0
  0.953125   0.703125 0
  0.796875   0.687500 0
  0.968750   0.781250 0
  0.968750   0.750000 0
  0.906250   1.000000 0
  0.953125   0.765625 0
  0.812500   0.718750 0
  0.843750   0.984375 0
  0.906250   0.734375 0
  0.921875   0.625000 0
  0.859375   0.875000 0
  0.921875   0.687500 0
  0.859375   0.937500 0
  0.968750   0.796875 0
  0.796875   0.703125 0
  0.937500   0.671875 0
  0.984375   0.796875 0
  0.812500   0.703125 0
  0.765625   0.687500 0
  0.937500   0.843750 0
  1.000000   0.593750 0
  0.937500   0.781250 0
  1.000000   0.531250 0
  0.812500   0.781250 0
  0.984375   0.875000 0
  0.843750   1.000000 0
  0.906250   0.750000 0
  0.968750   0.500000 0
  0.968750   0.718750 0
  0.906250   0.968750 0
  0.796875   0.625000 0
  0.859375   1.000000 0
  0.921875   0.750000 0
  0.968750   0.765625 0
  0.796875   0.609375 0
  0.859375   0.984375 0
  0.921875   0.734375 0
  1.000000   0.625000 0
  0.937500   0.875000 0
  1.000000   0.562500 0
  0.937500   0.812500 0
  0.875000   0.984375 0
  0.937500   0.734375 0
  0.906250   0.703125 0
  0.843750   0.953125 0
  0.906250   0.687500 0
  0.843750   0.937500 0
  0.937500   0.765625 0
  0.890625   0.718750 0
  0.828125   0.968750 0
  0.890625   0.703125 0
  0.828125   0.953125 0
  0.921875   0.781250 0
  0.906250   0.796875 0
  0.921875   0.718750 0
  0.859375   0.968750 0
  0.921875   0.703125 0
  0.859375   0.953125 0
  0.765625   0.546875 0
  0.937500   0.640625 0
  0.875000   0.890625 0
  0.937500   0.703125 0
  0.875000   0.953125 0
  0.765625   0.593750 0
  0.937500   0.687500 0
  0.875000   0.937500 0
  0.890625   0.937500 0
  0.953125   0.687500 0
  0.906250   0.718750 0
  0.843750   0.968750 0
  0.937500   0.796875 0
  0.828125   0.921875 0
  0.890625   0.671875 0
  0.984375   0.750000 0
  0.921875   1.000000 0
  0.812500   0.593750 0
  0.875000   0.968750 0
  0.937500   0.718750 0
  0.890625   1.000000 0
  0.953125   0.750000 0
  0.968750   0.671875 0
  0.906250   0.921875 0
  0.968750   0.734375 0
  0.906250   0.984375 0
  0.796875   0.578125 0
  0.984375   0.671875 0
  0.921875   0.921875 0
  0.812500   0.515625 0
  0.812500   0.578125 0
  0.765625   0.578125 0
  0.843750   0.906250 0
  0.906250   0.656250 0
  0.890625   0.750000 0
  0.828125   1.000000 0
  0.781250   0.593750 0
  0.984375   0.546875 0
  0.921875   0.796875 0
  0.921875   0.812500 0
  0.859375   0.656250 0
  0.859375   0.593750 0
  0.796875   0.843750 0
  0.859375   0.578125 0
  0.796875   0.828125 0
  0.921875   0.953125 0
  0.984375   0.703125 0
  0.984375   0.625000 0
  0.921875   0.875000 0
  0.875000   0.640625 0
  0.812500   0.890625 0
  0.875000   0.578125 0
  0.812500   0.828125 0
  0.765625   0.859375 0
  0.828125   0.609375 0
  0.937500   0.953125 0
  1.000000   0.703125 0
  0.921875   0.906250 0
  0.984375   0.656250 0
  0.921875   0.968750 0
  0.984375   0.718750 0
  1.000000   0.765625 0
  0.890625   0.984375 0
  0.953125   0.734375 0
  0.953125   0.656250 0
  0.890625   0.906250 0
  0.953125   0.718750 0
  0.890625   0.968750 0
  0.781250   0.562500 0
  0.796875   0.796875 0
  0.968750   0.640625 0
  0.906250   0.890625 0
  0.953125   0.796875 0
  0.953125   0.859375 0
  0.781250   0.703125 0
  0.984375   0.781250 0
  0.875000   1.000000 0
  0.937500   0.750000 0
  0.906250   0.937500 0
  0.968750   0.687500 0
  0.843750   0.625000 0
  0.781250   0.875000 0
  0.765625   0.796875 0
  0.937500   0.890625 0
  1.000000   0.640625 0
  0.781250   0.781250 0
  0.906250   0.906250 0
  0.968750   0.656250 0
  0.796875   0.765625 0
  1.000000   0.718750 0
  0.937500   0.968750 0
  0.828125   0.562500 0
  0.765625   0.812500 0
  0.828125   0.625000 0
  0.484375   0.750000 0
  0.421875   1.000000 0
  0.000000   0.218750 0
  0.453125   0.640625 0
  0.281250   0.546875 0
  0.312500   0.640625 0
  0.406250   0.984375 0
  0.468750   0.734375 0
  0.328125   0.656250 0
  0.390625   0.828125 0
  0.453125   0.578125 0
  0.437500   0.875000 0
  0.015625   0.093750 0
  0.312500   0.531250 0
  0.406250   0.937500 0
  0.343750   0.562500 0
  0.281250   0.812500 0
  0.453125   0.984375 0
  0.359375   0.625000 0
  0.296875   0.875000 0
  0.468750   0.796875 0
  0.046875   0.015625 0
  0.437500   0.656250 0
  0.312500   0.578125 0
  0.421875   0.921875 0
  0.000000   0.140625 0
  0.484375   0.671875 0
  0.265625   0.734375 0
  0.468750   0.984375 0
  0.046875   0.203125 0
  0.406250   0.625000 0
  0.390625   0.609375 0
  0.375000   0.625000 0
  0.265625   0.562500 0
  0.484375   0.812500 0
  0.062500   0.031250 0
  0.484375   0.984375 0
  0.062500   0.203125 0
  0.312500   0.890625 0
  0.375000   0.640625 0
  0.375000   0.671875 0
  0.390625   0.687500 0
  0.484375   0.843750 0
  0.390625   0.500000 0
  0.328125   0.687500 0
  0.328125   0.765625 0
  0.390625   0.515625 0
  0.437500   0.796875 0
  0.484375   0.531250 0
  0.468750   0.968750 0
  0.046875   0.187500 0
  0.453125   0.843750 0
  0.453125   0.812500 0
  0.281250   0.718750 0
  0.468750   0.859375 0
  0.265625   0.984375 0
  0.375000   0.765625 0
  0.296875   0.562500 0
  0.484375   0.781250 0
  0.062500   0.000000 0
  0.453125   1.000000 0
  0.031250   0.218750 0
  0.453125   0.546875 0
  0.312500   0.703125 0
  0.328125   0.718750 0
  0.296875   0.656250 0
  0.281250   0.640625 0
  0.265625   0.656250 0
  0.281250   0.671875 0
  0.484375   0.890625 0
  0.062500   0.109375 0
  0.296875   0.687500 0
  0.296875   0.625000 0
  0.265625   0.703125 0
  0.265625   0.687500 0
  0.265625   0.625000 0
  0.953125   0.046875 0
  0.484375   0.875000 0
  0.484375   0.921875 0
  0.062500   0.140625 0
  0.453125   0.921875 0
  0.031250   0.140625 0
  0.968750   0.234375 0
  0.171875   0.671875 0
  0.500000   0.796875 0
  0.078125   0.015625 0
  0.218750   0.718750 0
  0.062500   0.828125 0
  0.734375   0.250000 0
  0.906250   0.140625 0
  0.109375   0.578125 0
  0.781250   0.015625 0
  0.718750   0.187500 0
  0.031250   0.828125 0
  0.718750   0.234375 0
  0.890625   0.125000 0
  0.093750   0.562500 0
  0.734375   0.359375 0
  0.859375   0.546875 0
  0.062500   0.984375 0
  0.750000   0.406250 0
  0.718750   0.343750 0
  0.250000   0.750000 0
  0.234375   0.734375 0
  0.046875   0.578125 0
  0.734375   0.000000 0
  0.828125   0.125000 0
  0.031250   0.562500 0
[...]
POINT_DATA 4072
SCALARS scalar_value float 1
LOOKUP_TABLE default
-0.295647
-0.190798
-0.370481
0.174148
0.479511
-0.821354
-0.0653698
0
-0.124923
0.74623
0.182638
1.18003
-0.131894
0.218967
0.609233
-0.950581
-0.11751
-0.647297
-2.48522
-1.07919
0.362291
-0.850108
0
0.305607
-1.11162
0.698348
-0.0198431
0.745508
-0.431173
-0.0858379
-0.548912
-1.31743
-1.51009
0.642145
0.0822345
-0.123271
0.698151
0.432918
-0.203703
-1.80023
0.124701
0.975243
-0.224051
0.354343
0.939276
-0.399549
-0.239339
0.791964
1.1053
0.341761
-0.636976
0.18255
-0.566424
-0.619266
-0.146018
-1.38006
0
-0.102936
-0.327672
-0.641708
1.52795
-0.561647
0.781821
-1.21297
-0.165637
-0.868187
0.332575
-0.568332
-0.189759
-0.803095
-1.99766
-2.35906
-0.349434
-0.655127
-1.61305
0.023614
-0.885211
-0.295134
-1.07661
-0.0437746
-0.278926
-0.366704
-0.0544713
0.442774
-0.928691
-1.35059
-0.344397
-0.742573
0.234527
-0.113214
0.15635
-1.02108
0.184068
0.787068
1.57021
-0.801729
0.669456
1.1854
-1.05328
-0.420189
0.0589777
-0.458342
0.116166
0
-0.706211
0.464773
0.162746
-0.0509877
0.357431
-0.679703
0.272168
-0.139838
2.27532
-1.305
0.171372
-1.90393
0.740413
0.885969
-0.666802
0.0784535
0
0.708206
0.833874
-0.148588
-0.950361
-0.187055
-1.03818
0.792042
0.655373
0.236619
-0.223532
0.696614
1.62877
-0.60138
-0.544471
1.68062
0.461417
0.134744
-0.683498
0.536846
1.23674
-0.0804267
0.467105
0.154519
-0.176133
-0.26051
-0.716221
-0.106161
0.169588
-0.614937
-1.39391
0.246446
0.941934
-0.773616
0.733899
-0.114924
0
0.564999
-1.93978
0.102285
0.920401
0.21398
-0.469226
0.853036
0.228793
0.684882
-0.538992
0.371546
0.0225517
-2.12772
-1.56251
2.04687
-0.701097
0.0947786
-0.593528
-0.444034
-0.141945
0
1.1953
-0.0642536
0.604379
0.781029
0.623347
0
0.828769
-0.0473421
1.84642
-0.363545
0.167512
-0.697389
1.23633
-0.712801
1.02664
0.0229046
-0.14446
-0.00631986
-0.0573778
0.881751
0.254386
0.565945
0.426691
0.130136
-0.200125
-0.414828
-0.563321
1.95877
0.335061
-0.106937
0.880201
0.249257
-0.969693
0.00626476
0.206842
0.929811
-0.491363
-0.126443
0.921583
-0.115041
-0.105631
0.662987
-0.353736
-0.14368
-0.277442
-0.919886
1.49174
0.341857
0
0.189302
-0.326733
0.364351
0
0.158094
-0.186718
1.68981
0.461397
0.661066
0.257297
-0.656276
0.917019
-0.396768
-0.138828
1.13386
-0.595513
0.0530561
-0.58601
0
0.524232
-0.510165
-0.384577
2.42999
0.613792
0.0151625
0.595604
-0.120382
0.721134
0.776305
-0.129703
-0.672757
0.710381
0.863776
0.428358
0.495198
-1.29668
-0.517716
0.0789406
-0.0575157
-0.758691
0.789048
-0.451139
-0.333572
0.0459769
-0.528714
-0.12834
0.425044
0.219758
0.725565
0.952811
0.147046
-0.129189
-1.00238
0.125742
0.572015
0.244882
-0.132058
-0.753084
-0.161243
0
0.133443
1.45134
0.171646
0.90799
-5.33362
-1.49562
-0.316004
-0.963201
-1.13232
0.650132
-0.124968
0.726143
0.0741264
-0.193553
0.289074
-0.728019
0.444103
-1.30458
0
-0.175795
0.901669
-2.8058
2.09577
-0.609333
-2.67487
0.110108
1.77006
0.868689
0.296025
0.112027
1.09037
-1.62983
2.027
-0.842786
0.45913
-1.4613
-0.468932
-0.607956
0.350945
-0.81897
-0.383234
-1.94919
-0.369003
0.0652361
-0.0819637
0.164348
-0.262756
-1.42158
1.29333
0.581004
1.62186
0.164727
-0.224908
0.556162
0.692542
0.66325
-0.807937
0.0836922
0.473023
0.708342
6.2535
0.495094
0.294632
2.37088
1.09059
1.32785
0.652284
-0.0935976
-0.63726
0.372841
-0.708579
0.33098
-0.321678
-0.185763
-7.16079
1.72935
-0.240173
0
-0.00710644
0.414525
0.351041
0.636548
1.51875
-1.0382
-1.43603
-0.112411
-0.143579
0.579451
0.255735
-0.789151
-0.65122
0.0898566
0.696325
-0.163755
0.12993
-0.527286
0.606945
-0.400062
0.0438259
-0.432371
1.05739
-1.73196
0.876623
0.100963
0.150301
-1.75653
-0.640899
-0.617154
0.403355
0.604548
-0.0740582
1.25476
0.399265
-0.416256
0.654974
-0.184849
-0.13775
1.74691
1.88393
0.297904
-0.687179
-0.292368
0.480855
-0.0758282
-0.125458
0.133674
1.51986
9.51612
0.824994
-0.226447
0.158242
-0.42153
-0.0149337
-0.524476
-0.413526
0.478615
-1.4007
-0.461128
0.508006
-0.280876
-0.15582
-0.711575
0.309914
0.691133
0.368346
0.311735
0.177356
0.39174
0.700696
-1.19434
-0.706824
-0.651554
-0.540521
-0.103612
-1.49544
-0.256077
0.700288
0.700213
-0.533835
0.827318
-0.119329
1.6125
0.160298
0.536656
-0.0908299
0.143575
0.834813
-0.290851
-1.12601
-0.0899003
0.187125
-1.70262
1.21514
-0.994873
-0.426146
-1.55114
0.391324
0
1.07589
0.534371
-0.206762
-0.184182
-0.2097
-0.0416809
-0.329224
-0.540023
0.863668
1.16362
0.464748
0.127828
-0.422694
0.688719
-0.323162
-0.420916
0
0.148579
-0.0330297
0.921335
-0.00632406
0.432649
0.262533
0.531866
-0.460338
0.566537
-0.707839
-0.86329
1.04559
-0.392528
-0.356645
0.461323
-0.267701
-0.0166995
-1.23956
0.703808
-0.0667197
0.749894
0.21838
-0.618513
-0.0192464
-1.18525
-0.79106
0.515446
0.0335559
-1.09517
0.248516
-0.402241
-0.233422
-0.278935
-0.775248
0.265865
0.179246
-0.467995
0.457123
-0.140043
-0.274123
-0.0216292
0.0793142
-0.698606
-0.414989
-0.326045
-0.38928
-0.367478
0.0340459
-0.48586
-0.60679
0.765548
-0.27786
0.171606
-1.12671
-0.331068
-0.722314
0.698185
0.0964286
0.077577
-0.70832
1.19346
-0.329698
-0.37111
-0.069763
-0.205295
0.278912
0.2637
0.0861266
1.78778
0.41082
-0.0773018
0.683889
-1.32434
1.01843
-0.521198
0.544444
0.419512
-0.716997
-0.412161
1.11751
1.04784
-0.480525
0.396381
-0.375348
-0.404222
0.229931
-0.517425
-0.49139
-1.40347
-0.662495
-0.146809
0.318188
-0.369509
-0.549769
0.92681
0.755885
-0.137418
-1.0535
-0.831708
-0.163983
0.191331
-0.81155
0.598533
0.278801
0.272907
-0.279763
0.258275
0.978903
0.189843
0.859974
0.199588
0.138991
-0.310441
0.39276
-0.068094
-0.2616
-1.01058
1.90302
-0.205221
-1.34509
-0.184015
-0.00208929
0.0768859
0.582202
-2.36695
0.44083
-1.3232
0.0105581
0.119493
-0.558022
-0.650555
-1.7035
0.16179
0.26911
-1.73552
-0.568095
0.414468
-0.169821
0.0935871
-0.364495
0.00262127
-0.314505
-0.265419
0.0734816
0.283249
0.112156
-0.37509
-0.308504
-1.39872
-0.147405
-0.257502
-0.193325
-0.210448
-0.659806
-0.488546
0
0.452181
-0.783145
0.430338
-0.473757
-1.28332
8.66031
-0.373293
0.873916
-0.143179
0.0752832
-0.317205
0.264666
0.118727
-0.201435
-0.420197
-0.764206
-0.325846
-0.216157
-1.11695
-1.52415
-0.301913
1.03346
-0.253899
0.931843
-0.522133
-1.53381
-1.2104
0
0.162863
7.00463
-0.760182
-0.469843
-0.132139
-0.102558
1.10712
-0.0354134
0.0411466
-0.000494879
0.785851
-0.428712
0.457537
-0.0102456
-0.539449
0.62615
-0.246935
0.873291
0.0372429
-1.56213
0.142993
-0.317684
0.307832
0.184317
-0.516513
0.114715
-0.808339
0
0
-0.095207
1.87395
-0.717693
0.678594
-1.65307
-1.70564
0.774036
0.370821
-0.566722
-0.0595557
-0.0173372
2.24096
0.807684
-0.154481
1.03551
0.541391
-0.241741
0.341543
1.82818
0.51708
1.68125
-1.17595
-0.128525
0.724796
0.935364
7.22884
8.68427
0.775326
1.17484
-0.77345
2.61674
-0.704097
-1.7967
-0.0675199
0.889288
0.00877502
0.686767
1.03127
-0.803054
1.42935
0.986092
-0.805948
6.39574
-2.21025
-1.51105
-2.11166
-2.94759
-0.236037
-1.12152
-0.472268
-1.04146
-2.09557
-0.85226
0.817905
-0.20409
-0.0901308
0.697516
-0.319217
-0.93717
2.86504
-0.247644
-0.0294384
3.1003
3.22293
1.97819
-1.23903
-0.0755066
2.76216
-0.273405
0.205432
-0.743074
-1.6661
-0.848528
-2.24097
0.0237257
-0.867008
2.44344
0.235995
0.335668
2.41341
-0.989175
2.06204
-3.87679
-0.313096
-0.710521
8.04373
-0.811655
2.89057
-0.804594
2.12355
0.84332
5.21127
0.0212786
-2.61092
6.68065
0.497867
-0.0596115
0.475013
1.71284
-1.14468
-0.297498
-0.476515
0.256589
-2.7031
-0.0347466
-2.43171
-0.709906
1.656
-0.613111
0.295398
-3.59557
6.48329
3.05014
-0.468478
-0.440453
1.19173
1.52696
-1.16758
-0.43906
0.269888
1.39386
0.0199143
-0.743848
-1.36925
-0.349563
-1.63344
10.488
-1.11247
-0.142002
1.24052
-0.334407
-2.50208
-0.177587
-0.551652
8.4419
-0.731857
2.31158
-0.234607
3.09071
-0.290098
2.87203
2.20657
-0.848468
7.82248
0.398226
-2.83284
0.904274
2.48023
-0.0875124
5.87772
0.126567
5.0099
1.71643
1.0989
-0.511159
1.20829
0.352045
0.110219
-1.33367
-0.0243103
2.90149
1.90893
-1.29914
0
-0.305908
0.0409958
-0.234368
-3.37905
0.139782
-0.557412
0.450391
1.51364
-3.49072
0.607847
-0.207351
2.51038
-0.940524
1.60379
3.05872
4.85834
-2.45944
0.637124
-0.892377
-1.219
1.45943
-1.38697
1.09661
-0.693125
0.279485
3.09968
3.24652
-0.1051
0.145875
-0.253068
7.29743
-0.189844
1.23228
-1.15824
0.260195
-1.97423
0.411034
0.300983
0.085832
0.220027
-1.61837
1.7997
2.78033
-0.501838
0.25682
0.081021
0.700945
2.15856
0.436974
0.810786
2.8268
2.19114
2.06898
2.39426
-0.92714
-0.879809
0.729754
0.559525
1.04594
-0.119336
0.208253
0.513859
-0.858806
-1.94468
1.5105
0.577288
0.332176
0.55939
-1.48996
-1.13733
0
-1.01001
0.00966603
1.83463
-0.0594339
1.72294
-1.28524
0.116712
-0.0145035
1.83135
0.451778
-0.0517458
-0.999666
1.02357
-0.370685
4.26746
-1.81407
-0.0818981
0.356073
-0.453568
2.12318
-0.942656
0.494804
0.226035
2.40026
-1.16954
8.93852
2.30251
0.822353
0.211625
-0.625397
0.101261
-0.802634
0.237421
-0.693916
-1.16515
3.71926
0.368517
1.36777
-2.20699
0.708996
2.65063
0.0296611
-0.0784077
-2.42181
-0.0957964
-2.82459
-0.370835
0.344539
0.619697
-1.85179
-1.90636
-1.01677
10.0764
-0.0369624
2.08418
0.671723
2.71651
1.09443
-1.47977
3.39138
0.180347
-0.0413794
0.146004
1.4271
-0.083406
-1.45116
0
3.59111
0.842695
2.52631
6.05393
3.78458
13.6064
0.830753
0.257306
-1.27072
-0.260899
2.35409
0.045394
-2.93948
7.15472
0.277899
-2.26519
-1.49459
-1.57594
3.85972
-2.07427
-0.684301
0.655549
-0.137533
-0.0759747
0.136537
-0.00654041
1.6646
0.23157
-1.29292
-0.165282
-0.0623087
1.0595
-0.351574
-0.244285
-0.821681
-0.441178
-1.26538
0.486683
0.00494376
0.64309
-0.633935
0.59423
-0.455057
-0.20735
-0.254066
-0.429049
-0.237869
0.32539
-0.336317
-0.0930822
-0.989208
0.812853
1.00528
0.664966
0.334831
0.108684
0.550922
0.558539
-0.463834
0.768049
0.792833
0.438512
0.248499
0.772325
1.11754
-0.409421
0.347646
0.105825
-0.417017
0.0471158
-0.548082
2.45807
0.885928
-0.120238
0.198043
0.37582
-0.0223611
1.08628
0.191855
-0.146799
-1.38444
0.0823741
-1.19816
-3.0962
-0.297484
0.173602
-1.73044
0.605289
-2.12549
-1.51709
-0.185658
1.00717
0.590425
-1.70788
-1.08204
0.334162
-0.313535
1.16381
0.561708
-1.39225
-0.136308
-0.817079
1.08166
-1.33207
0.544062
0.23562
0.13521
-0.409459
0.094717
-0.376246
-0.639653
-0.158893
0.947436
-0.270443
0.437637
-0.331025
-0.318803
-1.86313
-0.403249
-0.02511
-0.299898
0.153617
-1.9189
0.273187
0.3856
0.79487
0.659606
-0.0417439
0.578643
0.539845
0.793303
0.569416
-0.572026
0.221236
0.0865002
-0.554737
1.51884
0.0245202
0.0364688
-0.232006
0.217942
-0.846134
0.298983
-0.185003
-0.660249
0.376231
-0.869861
-0.40049
0.226864
0.126111
-0.0530975
0.652051
0.633897
0.132486
1.20246
-0.92119
-0.196867
-0.232367
1.48044
-0.356795
-0.468207
0.895394
1.14247
-0.533324
-0.769614
0.832186
-0.209769
0.894793
-0.863953
-0.475714
0.464607
0.139956
-0.505102
0.0274198
-0.19193
1.09515
0.188295
-0.551886
0.0766416
0.542119
-0.435597
-0.835707
-0.000845621
-2.089
0.211888
0.484448
-0.511487
0.287251
1.65464
1.05903
0.59086
-0.482275
-0.000964854
-1.56075
1.03957
-0.654253
1.00836
0.122426
-0.223072
0.455749
-0.406243
0.481199
0.696484
-2.74971
0.282997
0.676787
0.0972402
-1.59175
-0.730869
0.551292
0.353588
0.806755
-0.132098
1.90864
0.254895
0.594672
0.184284
-1.87394
1.39702
-0.0087995
-0.171829
0.388532
-0.742462
0.985782
0.276392
0.270751
0.284383
0.34605
-0.151891
0.0949569
0.257947
-0.0426056
-1.14689
0.203672
0.24541
0.106354
0.306194
3.12051
-0.0536754
0.100453
0.286243
-0.875439
0.57091
-0.179055
-0.0842187
0.346449
0.759334
-0.0972982
0.113063
2.14822
-0.407977
-0.870803
0
0.736482
0.407033
-0.0167644
0.427268
-0.10714
2.40812
1.0015
-0.594266
-0.860482
0.268218
0.0156328
-1.25422
-0.157168
0.182808
-0.716498
0.379748
0.491784
0.123177
-1.64794
-0.0322463
-0.718843
1.66905
0.148424
0.690216
0.580435
0.799393
0.18885
-0.870945
0.771013
0.169868
-1.46083
0.800333
-1.18867
0.134305
0.83343
0.477706
-0.657585
-1.03684
0.296134
0.104833
-0.83037
0.105687
1.58768
0.114932
0.531038
0.425654
-0.0422847
-0.0698881
-0.0632581
-0.231346
-1.76813
-0.160377
-0.831476
-0.352495
0.930027
0.0932136
0.11955
0.245282
0.267025
-0.255792
-0.852895
-0.298852
0.0358661
0.198572
1.82453
0.394629
-0.913069
-0.111907
-0.409547
-0.527774
1.35077
0.1062
0.0257936
0.155128
-0.0376898
-0.539081
0.0910167
0.411815
0.240683
0.312886
-1.04023
0.144177
-0.925405
0.565089
-0.588187
0.0539642
0.271247
-0.192017
0.453414
-0.365593
-0.236416
-0.369689
0.411481
0.456166
-0.22906
0.202914
0.158181
0.0692237
-0.121366
-0.151224
-1.49165
-3.02859
-0.0203392
9.02604
1.07147
0.446186
0.442005
0.0244625
2.45664
-0.445303
-1.07598
0.220848
-0.0843504
-0.830614
1.59215
0
0.37717
0.681487
-0.333993
-0.709701
-0.858949
-0.063673
0.210153
-1.16761
-0.165475
-0.392636
0.457129
0
-0.019918
-0.200781
0.575578
0.450355
0.542795
0.612984
-0.122683
0.357337
-1.09662
0.253192
-0.14646
0.338817
-0.232892
0.399136
-0.126212
0.0214673
-1.60573
0
-0.18258
0.0447125
0.626854
0.334409
0.0907173
-6.69876
-0.316605
-0.316408
0.265082
0.0543178
0.262603
2.54526
0.286333
-0.136926
0.634611
2.20819
-0.485241
0.493446
-0.0995218
-0.374695
0.24835
0.0315228
0.635532
0.0473978
0.224762
0.889344
-1.66362
0.0910656
0.874527
-0.30662
-0.656474
-0.236516
-0.647754
0.253674
-0.787856
0.0900808
1.16741
0.297528
-0.00817571
-2.01584
-0.119641
2.09558
-0.461573
0.422713
0.527856
-0.039421
0
-1.74902
1.24072
-0.347562
-0.574969
1.04549
-0.319255
-0.745235
-1.19814
0.00813965
0.480691
0
-0.213707
-0.548963
0
-0.245669
0.331303
0.193427
0.097399
-0.252824
0
1.45092
1.20003
1.23406
-0.12206
-0.23999
0.64026
0.393511
0.851918
0.900061
0
0.866349
0.124115
0.241983
0.0312577
1.16356
0.645655
-0.0911043
-0.939523
-0.180708
-0.541942
-2.62649
0.146363
-0.0623226
-0.224831
0.0812774
0.543986
0.840679
-0.17678
0.604404
-0.237969
0.121836
-0.162565
-0.00286245
-1.47653
0.170258
0.74654
0.930509
-0.159981
1.09505
-0.104871
-0.339208
-0.0343479
0.03063
-1.03769
-0.00656069
-1.90162
0.98407
-0.230863
-0.0785064
0.436501
0.644862
1.33538
0.538545
0.13818
-0.0166791
0.152827
1.22121
-1.24862
0.825244
0.856335
0.949983
0.0309023
-0.663423
0.27147
-0.46192
-0.102984
-0.432792
0.302886
1.15644
0.455198
-0.29675
-0.517337
0.877846
1.36612
-0.0110079
1.61692
0.367014
0.42925
-0.076466
1.82932
-0.804069
0.536064
0.70298
3.9315
-0.153478
-0.421815
2.00707
1.43898
-0.100319
0.691032
0.288572
0.354762
-0.461415
0.284245
0.748258
-0.322547
-1.03793
0.0894414
-0.31247
-2.2566
0.432164
-0.865213
1.03153
-1.2949
0.223564
0.421243
0.653541
0.132039
0.267971
0.748247
0.390609
1.56554
-0.481937
-1.0834
0.353375
0.654776
-0.163478
-0.0259459
-0.268957
0
-0.37541
-0.157134
-0.799783
-1.13344
-0.143854
-0.506259
0.493772
0.208324
-1.28294
-0.365523
0.398959
0.333837
2.11364
0.46501
-0.0199461
0.00914232
-0.00284172
0.498737
-0.12477
0.223139
0.267032
-0.0940204
0.433624
-1.31794
0.298652
-0.249978
0.279827
0.28407
-0.721242
-0.407275
-0.643622
-1.47121
0.445745
-0.0320219
0.0947004
0.444332
-0.717405
-1.27784
0.659818
1.5329
0.488578
0.0593585
0.773846
0.256124
0.160255
-0.346376
0.272671
0.929982
0
0.445245
0.205051
-0.195357
0.774741
1.82947
-0.586786
0.265951
0.59818
0.457558
-0.792862
-0.0553727
0.124693
0.373984
-0.360382
0.864471
1.20678
0.260211
-0.906646
1.01834
-0.278609
0.544674
1.16675
-1.05699
-0.563994
-0.445881
-0.554087
0.346546
-0.0150919
0.28721
0.589062
0.185309
0.305067
-0.250068
0.568596
0.965738
-2.85957
0.621933
0.66525
0.800751
0.214212
-1.33869
-0.11653
-4.57717
0.737056
1.19441
-2.22379
-0.384831
0
1.53458
0.21695
-0.148375
0.00144948
-0.775998
0.132984
-0.533838
-1.73763
0.800224
1.34457
0.655585
0.428293
-5.2193
-0.30587
-0.5733
-0.73525
-0.85232
1.9934
-0.125008
0.877501
-2.38725
-0.260405
-2.08591
0.486533
-2.25945
0.703419
0.515721
-0.597771
-0.106231
-1.46925
-0.757579
0.0760026
-0.529998
-0.203078
1.66689
-0.441124
-3.37814
-1.04269
-0.0556295
-0.843094
-0.02823
1.57406
-0.594159
-0.288037
0.651754
2.09628
-0.0582419
0
0.293501
0.126946
-0.353264
0.295214
-1.97846
0.396554
0.236126
0.857613
3.53487
0.956538
0.428914
0.00936684
-1.35128
0.0542014
3.39176
0.400391
1.45018
0.697441
0.236162
-1.17046
0.745931
0.53131
-2.25439
-0.401146
0.68143
-1.0654
-0.515741
0.660456
1.38241
-0.0395831
-0.240455
-0.253373
-1.43243
1.46599
-0.227159
1.16355
-0.567147
0.16775
0
0.125133
-1.08143
-0.199827
-0.0607642
0.945995
1.23906
0.049544
-0.132439
0.910729
-1.03893
0.0822701
-0.880633
0.117218
0.740666
0
-0.295211
0.539283
0.194902
-0.364948
-0.690458
-0.269193
0.666745
-0.00372216
-0.0959635
0.0371881
0.433438
-0.110362
0.872663
-0.0255344
-0.397659
-0.0105076
-0.00895928
-0.198935
-0.106706
-0.32531
0.154808
0.248543
-0.0917278
-0.0835866
-1.52341
0.0321303
-0.156459
-1.14384
-2.33777
0.501275
-0.288889
0.706117
0.676601
-0.0851075
0.631692
-0.198928
-0.126918
0.484654
0.759745
1.16903
-1.3515
-1.05916
-0.0792783
-0.414109
1.08142
-1.27264
-1.19784
0.0961845
-0.836002
-1.39303
-0.430475
-1.18523
-1.06772
0.386208
0.0268553
-0.324853
0.527667
-0.174106
0.676263
0.0943924
1.06008
-0.214934
0.187663
0.309028
0.183265
-0.0383211
0.314458
0.171
-0.464181
0.555175
-3.15446
-0.237919
0.339706
1.47195
0.156404
0.417977
-0.296817
-0.0123034
-0.743997
0.140285
-1.13582
0.0747143
0.340352
-0.549222
1.20337
-0.174676
0.0171317
0.425002
0.845179
0.522359
0.118496
-0.2811
-0.0195183
0
-0.0751046
1.06255
-0.0557166
0.955865
-1.65887
0.560123
-0.145084
-0.845791
-0.804388
0.105853
-0.323722
0.282763
-0.573212
0.14303
-1.16803
-0.592301
0.130346
0.678019
-0.306659
2.31816
0.262691
0.544035
-0.108565
0.0948092
0.0424188
0.0474485
-0.290009
-0.126515
-0.153714
0.105465
1.54572
0
0.0182978
0.360571
0.918943
-0.123145
0.0170904
-0.0135993
0.758887
0.907212
0.0989014
0.093983
-0.97194
-0.709114
0.94709
0.00104723
1.23718
2.74903
-0.115489
-0.302431
0.121628
-0.453357
-0.0677876
0.48189
1.47961
0.684093
0.831845
-0.0575945
0.775996
-0.5967
0.345264
-0.12136
-0.443726
0.50648
-0.701472
-0.323171
0.313306
-1.28368
0.477411
-0.0616256
0.709866
-0.107791
0.803526
0.454985
0.203212
-0.600167
0
0.0517043
0.543905
-0.194259
0.0417907
0.915393
-0.416256
-0.107404
-0.506953
-0.849132
-0.7199
0.854504
-0.576875
0.719068
-0.765466
0.724893
0.254569
0.651119
-1.24652
0.512632
0.836276
-0.185799
-0.53942
0.270279
-0.580438
0.12565
0.472606
0.0611059
-0.0350298
-0.205856
-0.198306
0.753008
-2.48286
0.00498554
0.426842
0
-0.42464
0.256105
-0.0571379
0.0635718
0.0119687
-0.873219
0.86197
-2.73495
-0.163439
-0.221607
-0.151219
-1.13338
0.195967
0.452404
-0.97825
-0.657522
0.248514
0.458052
0.53358
-0.314169
-0.049829
0.377045
2.85104
0.113722
0.321359
0.475497
0.417255
-1.06706
0.807792
-0.321796
-0.150961
0.292365
0.605509
-0.198999
-0.0185888
-0.132992
0.485051
0.299863
0.698403
0.233347
0.0162257
-1.39832
-0.806294
-0.0072244
0.462705
0.508736
-3.6213
-0.485542
-3.67809
0.0475872
-0.134866
0.0564872
-0.431962
-0.283552
0.762351
-0.303566
-0.011875
-0.0137692
0.573494
0.415173
3.13097
0.0746501
-0.23852
-0.22399
0.487002
1.06265
0
-0.0852171
-0.0344838
0.411182
0.543295
0
0.297491
0.112278
0.217461
-0.0613751
0.0285943
1.018
-1.29326
0.381615
-1.02238
-0.146323
-0.118888
0.723711
-0.315202
0.495724
-0.0827468
-0.16266
0.729153
0.886426
-3.85953
-0.343401
-0.12582
-0.250971
0.355015
0.374512
-0.0206597
0.521837
-1.13199
0.858473
0.0864593
-0.0105644
0.147514
-0.155523
0.521254
0.781592
-1.74591
-0.300108
-1.52151
0.262826
0.0630097
0.968079
-0.437505
-0.220287
-0.916081
0.23974
-0.233143
2.99541
0.580871
-0.167607
-0.168112
-0.110399
-0.515481
0.278653
0
-0.715054
0.56441
0.514662
-0.29844
1.24737
-0.522359
0.0191719
-0.423143
-0.162154
0.661793
0.276481
0.240362
-0.022392
1.01109
0.0889201
0.40098
-0.382393
0.508692
0.216571
-0.232692
-0.830877
-0.486556
-0.609188
-0.890125
-0.256342
-0.238127
0.194868
-0.211085
0.428507
-0.30386
0.46672
0.787041
0.136865
0.0345963
-0.196654
0.660223
1.66367
0.161735
0.254451
-0.687028
0.627989
1.89838
-0.307936
0.872975
-2.27947
0.518643
-0.068793
0.224652
-0.192335
0.324852
0.539993
-0.705647
-0.12189
-1.37457
-0.907154
-0.930379
0.0394244
-1.03921
-0.165761
0.636108
-0.953745
-0.712318
2.14008
-1.69926
0.0985442
0.388932
-2.83417
0.834934
-0.888002