# vtk DataFile Version 2.0
Unstructured Grid by M++
ASCII
DATASET UNSTRUCTURED_GRID
POINTS 1089 float
  0.187500   0.812500 0
  0.562500   0.500000 0
  0.062500   0.625000 0
  0.062500   0.562500 0
  0.750000   1.000000 0
  0.687500   1.000000 0
  0.062500   0.687500 0
  0.562500   0.937500 0
  0.375000   0.312500 0
  0.812500   0.750000 0
  0.937500   0.562500 0
  0.812500   0.125000 0
  0.937500   0.875000 0
  0.125000   0.562500 0
  0.625000   0.812500 0
  0.625000   0.875000 0
  0.062500   0.500000 0
  0.562500   0.750000 0
  0.562500   0.812500 0
  1.000000   0.687500 0
  0.312500   0.187500 0
  0.750000   0.687500 0
  0.250000   0.375000 0
  0.750000   0.625000 0
  0.562500   0.437500 0
  0.062500   0.187500 0
  0.250000   0.187500 0
  0.687500   0.687500 0
  0.937500   1.000000 0
  0.437500   0.750000 0
  1.000000   0.312500 0
  1.000000   0.937500 0
  0.687500   0.937500 0
  0.250000   0.437500 0
  0.250000   0.062500 0
  0.750000   0.312500 0
  0.750000   0.375000 0
  0.937500   0.500000 0
  0.437500   0.250000 0
  0.687500   0.312500 0
  0.312500   0.250000 0
  0.500000   0.500000 0
  1.000000   0.750000 0
  0.937500   0.250000 0
  0.375000   0.250000 0
  0.625000   0.250000 0
  0.125000   0.250000 0
  0.625000   0.500000 0
  0.625000   0.562500 0
  0.812500   0.625000 0
  0.312500   0.375000 0
  0.812500   0.437500 0
  0.437500   0.187500 0
  0.937500   0.437500 0
  0.750000   0.062500 0
  0.125000   0.500000 0
  0.625000   0.750000 0
  0.875000   0.812500 0
  0.812500   0.375000 0
  0.312500   0.125000 0
  1.000000   0.625000 0
  0.437500   1.000000 0
  0.687500   0.750000 0
  0.187500   0.500000 0
  0.187500   0.437500 0
  0.187500   0.250000 0
  0.687500   0.500000 0
  0.125000   0.750000 0
  0.625000   1.000000 0
  0.375000   1.000000 0
  0.125000   0.187500 0
  0.625000   0.437500 0
  0.375000   0.187500 0
  0.875000   0.437500 0
  0.875000   0.500000 0
  0.875000   0.187500 0
  0.625000   0.125000 0
  1.000000   1.000000 0
  0.500000   0.750000 0
  0.750000   0.750000 0
  0.062500   0.250000 0
  0.937500   0.312500 0
  0.687500   0.625000 0
  0.187500   0.312500 0
  0.687500   0.562500 0
  0.937500   0.625000 0
  0.250000   0.125000 0
  0.562500   0.562500 0
  0.437500   0.062500 0
  0.562500   0.875000 0
  0.125000   0.375000 0
  0.625000   0.687500 0
  0.125000   0.437500 0
  0.625000   0.937500 0
  0.375000   0.937500 0
  0.250000   0.250000 0
  0.750000   0.500000 0
  0.562500   0.312500 0
  0.062500   0.062500 0
  0.625000   0.062500 0
  0.500000   0.812500 0
  0.250000   0.562500 0
  0.750000   0.812500 0
  0.562500   0.625000 0
  0.062500   0.375000 0
  0.062500   0.312500 0
  0.375000   0.125000 0
  0.875000   0.375000 0
  0.062500   1.000000 0
  0.500000   0.125000 0
  1.000000   0.437500 0
  0.500000   0.187500 0
  0.375000   0.062500 0
  0.875000   0.312500 0
  0.625000   0.312500 0
  0.625000   0.625000 0
  0.375000   0.375000 0
  0.875000   0.625000 0
  0.187500   0.125000 0
  0.687500   0.437500 0
  0.187500   0.187500 0
  0.562500   0.250000 0
  0.562500   0.187500 0
  0.875000   0.250000 0
  0.812500   0.187500 0
  0.687500   0.375000 0
  0.437500   0.125000 0
  0.937500   0.375000 0
  0.687500   0.062500 0
  0.812500   0.812500 0
  0.125000   0.312500 0
  1.000000   0.375000 0
  1.000000   0.062500 0
  0.812500   0.500000 0
  0.750000   0.437500 0
  0.875000   0.562500 0
  0.187500   0.062500 0
  0.750000   0.125000 0
  0.875000   0.875000 0
  0.187500   0.375000 0
  0.750000   0.875000 0
  0.250000   0.625000 0
  0.812500   0.875000 0
  0.312500   0.625000 0
  0.875000   0.937500 0
  0.375000   0.687500 0
  0.562500   1.000000 0
  0.062500   0.750000 0
  0.125000   0.812500 0
  0.875000   0.687500 0
  0.375000   0.437500 0
  0.312500   0.062500 0
  0.812500   0.312500 0
  0.937500   0.687500 0
  0.437500   0.437500 0
  0.937500   0.937500 0
  0.437500   0.687500 0
  0.062500   0.437500 0
  0.562500   0.687500 0
  0.250000   0.875000 0
  0.187500   0.875000 0
  0.125000   0.062500 0
  0.625000   0.375000 0
  0.125000   0.125000 0
  0.312500   0.312500 0
  0.812500   0.562500 0
  0.562500   0.375000 0
  0.062500   0.125000 0
  0.250000   0.312500 0
  0.750000   0.562500 0
  0.312500   0.937500 0
  0.562500   0.062500 0
  0.500000   0.062500 0
  0.562500   0.125000 0
  0.250000   0.937500 0
  0.187500   0.562500 0
  0.687500   0.812500 0
  0.812500   0.937500 0
  0.312500   0.687500 0
  1.000000   0.000000 0
  0.437500  -0.875000 0
  0.437500  -0.812500 0
  0.500000  -0.812500 0
  0.500000  -0.750000 0
  0.125000  -0.437500 0
  0.187500  -0.437500 0
  0.937500  -0.375000 0
 -1.000000   0.375000 0
 -1.000000   0.312500 0
 -0.937500   0.062500 0
 -0.687500  -0.937500 0
 -0.750000  -0.687500 0
 -0.812500  -0.437500 0
 -0.875000  -0.187500 0
  0.250000   0.750000 0
 -0.250000   0.500000 0
  0.312500   0.500000 0
 -0.187500   0.250000 0
  0.187500   1.000000 0
 -0.312500   0.750000 0
 -0.375000   1.000000 0
 -0.625000   0.187500 0
 -0.687500   0.437500 0
 -0.750000   0.687500 0
 -0.562500  -0.062500 0
 -0.125000  -0.812500 0
 -0.250000   0.375000 0
 -0.312500   0.625000 0
 -0.375000   0.875000 0
  0.250000   0.687500 0
  0.750000   0.937500 0
 -0.250000   0.437500 0
  0.187500   0.937500 0
 -0.312500   0.687500 0
 -0.375000   0.937500 0
  0.812500   0.687500 0
  0.312500   0.437500 0
 -0.187500   0.187500 0
 -0.812500   0.625000 0
 -0.750000   0.375000 0
 -0.687500   0.125000 0
 -0.625000  -0.125000 0
 -0.687500   0.812500 0
 -0.187500  -0.875000 0
 -0.875000   0.812500 0
 -0.750000   0.625000 0
 -0.625000   0.125000 0
 -0.562500  -0.125000 0
 -0.687500   0.375000 0
 -0.375000   0.812500 0
 -0.250000   0.312500 0
 -0.312500   0.562500 0
 -0.625000   0.812500 0
 -0.687500   0.500000 0
 -0.562500   0.000000 0
 -0.625000   0.250000 0
 -0.875000   0.562500 0
 -0.750000   0.062500 0
 -0.812500   0.312500 0
 -0.937500   0.812500 0
 -0.625000   0.562500 0
 -0.562500   0.312500 0
 -0.250000  -0.937500 0
 -0.750000   0.750000 0
 -0.812500   1.000000 0
 -0.875000  -0.125000 0
 -0.375000   0.125000 0
 -0.750000  -0.625000 0
 -0.250000  -0.375000 0
 -0.812500  -0.375000 0
 -0.312500  -0.125000 0
 -0.937500   0.125000 0
 -0.437500   0.375000 0
 -0.500000   0.875000 0
  0.062500   0.875000 0
 -0.437500   0.625000 0
  0.125000   0.625000 0
 -0.375000   0.375000 0
 -0.250000   0.875000 0
  0.312500   0.875000 0
 -0.187500   0.625000 0
  0.375000   0.625000 0
 -0.125000   0.375000 0
  0.437500   0.375000 0
 -0.062500   0.125000 0
 -0.750000   0.875000 0
 -0.750000   0.812500 0
 -0.750000   0.500000 0
 -0.562500  -0.250000 0
 -0.625000   0.000000 0
 -0.375000  -1.000000 0
 -0.687500   0.250000 0
 -0.812500   0.750000 0
 -0.562500  -0.187500 0
 -0.625000   0.062500 0
 -0.687500   1.000000 0
  0.125000   1.000000 0
 -0.375000   0.750000 0
  0.187500   0.750000 0
 -0.312500   0.500000 0
  0.250000   0.500000 0
 -0.250000   0.250000 0
 -0.437500   1.000000 0
 -0.875000   0.500000 0
 -0.812500   0.250000 0
 -0.750000   0.000000 0
 -0.937500   0.750000 0
 -0.875000   0.437500 0
 -0.812500   0.187500 0
 -0.562500  -0.812500 0
 -0.625000  -0.562500 0
 -0.687500  -0.312500 0
 -0.750000  -0.062500 0
 -0.937500   0.687500 0
 -0.625000   0.500000 0
 -0.562500   0.250000 0
 -0.500000   0.687500 0
 -0.562500   0.937500 0
 -0.437500   0.437500 0
 -0.812500   0.562500 0
 -0.750000   0.312500 0
 -0.687500   0.062500 0
 -0.750000   1.000000 0
 -0.562500   0.625000 0
 -0.625000   0.875000 0
 -0.375000   0.562500 0
 -0.312500   0.312500 0
 -0.437500   0.812500 0
  0.125000   0.875000 0
 -0.375000   0.625000 0
  0.187500   0.625000 0
  0.687500   0.875000 0
 -0.312500   0.375000 0
 -0.437500   0.875000 0
  0.375000   0.875000 0
 -0.125000   0.625000 0
  0.437500   0.625000 0
 -0.062500   0.375000 0
 -0.187500   0.875000 0
  0.500000   0.375000 0
  0.000000   0.125000 0
 -0.875000   0.625000 0
 -0.750000   0.125000 0
 -0.812500   0.375000 0
 -0.812500   0.687500 0
 -0.687500   0.187500 0
 -0.625000  -0.062500 0
 -0.750000   0.437500 0
 -0.937500   0.875000 0
 -0.375000   0.500000 0
 -0.437500   0.750000 0
 -0.500000   1.000000 0
 -0.687500   0.562500 0
 -0.312500  -0.937500 0
 -0.562500   0.062500 0
 -0.625000   0.312500 0
 -0.687500   0.625000 0
 -0.500000  -0.125000 0
 -0.562500   0.812500 0
 -0.312500   0.812500 0
  0.312500   0.562500 0
 -0.187500   0.312500 0
  0.250000   0.812500 0
 -0.250000   0.562500 0
 -0.875000   0.875000 0
 -0.562500   0.875000 0
 -0.937500   0.500000 0
 -0.875000   0.250000 0
 -1.000000   0.750000 0
 -0.937500   0.562500 0
 -0.812500   0.062500 0
 -0.875000   0.312500 0
 -1.000000   0.812500 0
 -0.937500   0.625000 0
 -0.812500   0.125000 0
 -0.875000   0.375000 0
 -0.562500  -0.875000 0
 -0.750000  -0.125000 0
 -0.625000  -0.625000 0
 -0.687500  -0.375000 0
 -1.000000   0.875000 0
  0.187500   0.687500 0
 -0.312500   0.437500 0
  0.125000   0.937500 0
 -0.375000   0.687500 0
 -0.437500   0.937500 0
  0.125000   0.687500 0
 -0.375000   0.437500 0
  0.062500   0.937500 0
 -0.437500   0.687500 0
 -0.500000   0.937500 0
 -1.000000   1.000000 0
 -1.000000   0.937500 0
 -0.937500   0.937500 0
 -0.937500   1.000000 0
 -0.875000   0.937500 0
 -0.875000   0.125000 0
 -0.937500   0.375000 0
 -0.812500  -0.125000 0
 -0.687500  -0.625000 0
 -0.625000  -0.875000 0
 -0.750000  -0.375000 0
 -1.000000   0.625000 0
 -0.875000   0.187500 0
 -0.937500   0.437500 0
 -1.000000   0.687500 0
 -0.875000   0.062500 0
 -0.937500   0.312500 0
 -0.812500  -0.187500 0
 -0.625000  -0.937500 0
 -0.750000  -0.437500 0
 -0.687500  -0.687500 0
 -1.000000   0.562500 0
 -0.812500   0.937500 0
 -0.812500   0.875000 0
  0.812500   1.000000 0
  0.312500   0.750000 0
 -0.187500   0.500000 0
  0.250000   1.000000 0
 -0.250000   0.750000 0
  0.875000   0.750000 0
  0.375000   0.500000 0
 -0.125000   0.250000 0
 -0.312500   1.000000 0
 -0.187500   0.437500 0
 -0.250000   0.687500 0
 -0.125000   0.187500 0
  0.312500   0.812500 0
 -0.187500   0.562500 0
  0.375000   0.562500 0
 -0.125000   0.312500 0
 -0.250000   0.812500 0
[...]
CELL_DATA 1024
SCALARS scalar_value float 1
LOOKUP_TABLE default
2.20185
2.22596
1.94764
1.98189
1.99047
1.97387
1.95431
0.708205
0.920322
0.792193
2.38928
2.33224
1.766
1.88837
1.92194
2.56988
2.60427
1.9655
1.96381
1.92474
1.9358
2.42926
2.60074
2.0646
2.14857
1.88794
1.80861
1.71131
1.98796
2.0039
1.94185
1.92806
2.03314
2.15023
2.93188
1.43862
2.03839
1.93666
2.13714
2.19525
1.98001
2.44816
2.32756
0.788655
1.16184
2.02084
2.43698
2.56588
2.41676
1.04904
1.79783
1.85296
0.762177
1.02634
3.19161
1.92996
1.94204
1.98547
1.66277
1.42866
0.841377
0.975038
4.83182
1.93035
3.16203
2.10423
1.57805
1.4123
1.31286
1.58107
1.9662
1.29422
1.73763
4.10012
2.01174
2.07908
2.14025
2.18767
2.08593
2.24022
1.98919
1.97912
2.14419
2.05409
2.03724
2.01788
1.92116
2.57288
2.14913
1.17468
0.901506
1.14912
1.53713
1.62481
1.23152
1.90091
2.08049
2.15056
3.13307
1.82992
1.1899
2.13529
2.23018
2.02031
2.02976
2.2453
2.05717
2.08402
2.28642
2.02386
0.651299
1.04418
2.72729
2.29423
1.6071
1.73475
2.16401
2.3424
2.26324
5.75629
1.77704
1.96668
2.36517
0.622389
0.903459
1.46152
1.56515
1.63984
1.53738
4.17837
1.74061
9.38493
1.54287
1.62891
1.7301
3.20809
2.06418
2.0173
2.00171
1.99822
6.3482
1.87324
1.8102
2.03578
2.09632
1.96135
1.66353
26.5762
1.437
1.52356
3.19254
1.97602
2.02895
1.06047
0.925992
1.27762
1.78995
1.29456
2.99515
1.93266
2.835
1.84504
1.51117
1.40699
2.04528
2.68148
1.33142
2.59577
1.48356
1.37995
1.98897
2.10605
2.04615
1.98898
1.1059
1.98782
1.98985
1.1692
1.03784
1.26791
1.70097
1.35032
9.05797
8.54201
1.69537
1.94759
5.85179
1.66189
1.82093
1.867
5.48597
4.85576
1.75306
1.90531
2.02816
1.97579
1.96755
1.92007
2.5163
2.255
1.84053
4.07125
1.48925
1.38763
1.83316
3.51497
3.84471
2.00697
1.21921
2.53501
2.73039
2.43623
2.05697
2.07467
2.7989
2.18059
2.36673
2.54832
2.02457
3.06451
2.29922
2.11304
2.75781
3.5408
1.92662
2.01391
2.03696
2.03003
2.88516
2.67695
2.19025
2.43674
2.50862
1.99482
3.82209
2.11048
2.2216
2.31484
2.17123
2.1283
2.20105
2.01516
2.19005
2.21264
2.22695
4.55848
1.85342
1.9258
3.43466
1.98132
3.97751
2.05893
3.00301
3.33957
1.72139
1.63869
0.565701
0.558676
0.569332
0.47073
0.473427
0.445555
0.340457
0.29891
0.254719
0.303659
0.536309
0.547485
0.558439
0.53164
0.488122
0.515881
0.554944
0.548111
0.545157
0.551894
0.548947
0.607018
0.615954
0.883638
0.886248
0.836903
0.781537
0.708291
0.715921
0.781636
0.573476
0.592642
0.582844
0.54754
0.563029
0.656022
0.641952
0.582982
0.555719
0.602505
0.304675
0.325325
0.382617
0.393602
0.42601
0.438493
0.599155
0.580427
0.583899
0.421096
0.35516
1.2697
0.836063
1.04982
0.989038
1.03936
0.789887
0.929619
0.998425
1.32248
1.07838
0.96837
0.74147
0.902908
0.480761
0.357908
0.231709
0.387877
0.34858
0.245249
0.495594
0.872525
0.842224
0.953016
1.01112
1.45397
1.11572
0.999526
0.912978
0.713531
0.635533
0.668301
0.786203
0.927789
0.793809
0.670223
0.417563
0.294503
0.204747
0.166273
0.511294
0.595862
0.447906
0.455097
0.31873
0.354162
0.493018
0.369012
1.08726
0.895483
0.882021
0.745803
1.03046
0.944531
0.625019
0.651207
0.749115
0.674634
0.595048
0.70063
0.626932
0.602406
0.624854
0.68027
0.510477
0.53951
0.452605
0.620033
0.730073
0.784299
0.78272
0.797257
0.643385
0.674846
0.788131
0.635416
0.798016
0.611807
0.785388
0.693209
0.723256
0.690164
0.418491
0.260262
0.705148
0.839566
0.860796
0.419276
0.275233
0.282134
0.51424
0.907053
0.526282
0.467577
0.327931
0.457377
0.505211
0.569729
0.561783
0.483104
0.502901
0.323891
0.318704
0.9782
0.387306
0.271984
0.162915
0.102439
0.492724
0.540455
0.577161
0.736191
0.680038
0.405703
0.425183
0.477058
0.35563
0.272885
0.281404
0.648594
0.679202
0.837898
0.710173
0.926503
0.85227
1.18137
0.890084
0.943887
1.00257
0.835947
1.0279
0.98242
0.553253
0.531561
0.881249
0.611422
0.579998
0.668854
0.596114
0.467491
0.562052
0.570209
0.39808
0.479077
0.69847
0.659554
0.681378
0.887987
0.955597
0.782674
0.846286
2.05197
1.66699
1.165
1.06725
0.965222
0.932563
1.23114
1.11608
0.981354
0.937217
0.389009
0.308977
0.157365
0.204936
0.836347
0.791323
0.976146
0.928193
0.945918
1.1336
0.224691
0.227731
1.38467
1.16265
1.4648
0.68628
0.789356
0.715212
0.457347
0.380903
0.424032
0.549067
0.533003
0.521436
0.514828
0.792858
0.752478
0.792336
0.751352
0.161452
0.0838503
0.529251
0.540555
0.53759
0.485772
0.510004
0.561817
0.533365
0.517188
0.496368
0.581978
0.648603
0.621891
0.38926
0.448363
0.0352966
0.0331474
0.0293649
0.0740296
0.0778915
0.0810377
0.077557
0.0773288
0.0697848
0.0774729
0.0487385
0.0431925
0.0382605
0.0445822
0.0650583
0.0711315
0.0705397
0.0855715
0.0883372
0.0870611
0.084515
0.0765043
0.08207
0.0335856
0.029399
0.0407607
0.0839016
0.0863698
0.0807309
0.0942574
0.0899885
0.0877001
0.0920833
0.058419
0.0582849
0.0446153
0.0897328
0.0931312
0.091845
0.0960821
0.0974404
0.106297
0.119486
0.0936072
0.0392646
0.0446228
0.0455511
0.0755485
0.0792857
0.0782578
0.0835059
0.0186619
0.0145425
0.0584236
0.0260961
0.073839
0.069074
0.0583417
0.0242214
0.0223221
0.0448101
0.0261116
0.0581631
0.0815734
0.0844847
0.045601
0.0715329
0.0242192
0.0335504
0.0709335
0.0182467
0.0383137
0.0924372
0.0499051
0.031979
0.0472997
0.0586776
0.0442851
0.0259824
0.0512921
0.0454586
0.0349388
0.0799199
0.0792172
0.169773
0.0822688
0.0870918
0.0374559
0.0470264
0.0772705
0.113885
0.026126
0.0513398
0.207414
0.0707952
0.0391222
0.0850889
0.0896572
0.0201732
0.0633817
0.0798174
0.0264135
0.138841
0.070753
0.0835683
0.0289291
0.0483846
0.153186
0.0662131
0.0681277
0.0823976
0.0622826
0.0793629
0.0745823
0.0492226
0.0588075
0.067974
0.0665073
0.0209797
0.0235255
0.0834362
0.0812311
0.0250477
0.0323132
0.114909
0.0562348
0.0775235
0.0357283
0.1346
0.0646179
0.053353
0.0330801
0.0779029
0.204757
0.0277357
0.109404
0.125992
0.0366152
0.146591
0.0658588
0.0269905
0.0531058
0.0482514
0.00366729
0.0760178
0.0870957
0.0419236
0.0411185
0.0412826
0.0620832
0.091961
0.034606
0.0720745
0.0743083
0.0630048
0.0750491
0.0688497
0.0601756
0.0583198
0.0649398
0.017883
0.0150353
0.0551717
0.0702672
0.0277881
0.093509
0.0903408
0.0963785
0.0207853
0.0231279
0.0708331
0.0876204
0.0334239
0.0182967
0.0597792
0.061299
0.0519629
0.0228117
0.0127528
0.0860699
0.0893152
0.0475789
0.0465917
0.0683256
0.306554
0.0734968
0.08213
0.0401272
0.0646988
0.0519485
0.0299443
0.0199908
0.0651483
0.054144
0.0529511
0.0890777
0.0318366
0.0324113
0.0150906
0.0270755
0.0284567
0.0169663
0.0386797
0.0663846
0.0951374
0.0312887
0.101297
0.108985
0.0553069
0.0725417
0.0747047
0.0851623
0.0132888
0.0117555
0.00454442
0.00903633
0.0786552
0.0765059
0.0663869
0.0712337
0.0223167
0.0239076
0.0247424
0.0210583
0.0232335
0.0519262
0.0533148
0.075517
0.0207992
0.0444233
0.0592676
0.0609539
0.0554849
0.0159246
0.0381859
0.037929
0.0988258
0.11792
0.104269
0.0851201
0.0840414
0.0821664
0.0852204
0.0830312
0.0841152
0.0575845
0.0625022
0.0587255
0.00913863
0.0161457
0.0764865
0.0782388
0.00917515
0.00915208
0.0814132
0.0797604
1.53135
1.74547
1.66107
1.11613
1.12603
1.4805
1.41978
1.371
1.32451
1.11779
1.08941
1.31286
1.32401
1.81697
1.53297
1.55425
1.00666
5.62387
1.50134
1.69561
1.53957
1.3566
1.95941
1.94521
1.58926
1.10283
1.04489
1.23684
1.33804
1.87004
1.17548
2.40699
1.06565
1.21081
3.04508
1.05296
1.03859
9.34434
1.30204
1.27861
1.8095
2.09278
1.45237
1.8298
2.41208
1.00592
1.08007
1.05175
0.603311
3.85754
0.992818
1.195
2.44351
0.356382
1.05071
1.27133
2.31372
0.99496
3.4053
3.94079
1.0661
1.11873
2.90006
0.990631
1.17207
2.12834
2.02124
0.749388
0.579981
0.472835
0.79782
1.57093
1.06801
2.23684
0.410132
0.489914
2.3344
1.14284
1.12673
3.61789
3.24742
0.970717
1.01951
0.676144
1.14651
0.667583
0.356062
0.74016
1.58824
1.58231
1.10327
1.19535
1.15711
3.20559
2.8747
1.03199
1.06844
0.779358
1.76008
1.7029
0.881833
0.821339
1.192
1.92234
1.09683
1.64698
2.8823
0.959677
1.05956
6.30244
1.07058
0.609805
0.944145
0.989427
0.675486
3.68468
1.03734
4.79018
1.07241
1.03197
0.700399
4.4205
1.03585
1.02605
1.27614
1.29416
1.35306
0.915465
0.858162
1.02968
1.33301
2.69008
0.981631
2.49274
0.750891
0.900889
1.91437
2.24387
1.00233
2.10869
1.44756
0.404221
0.509708
2.57098
2.36647
3.03264
0.883833
0.927522
2.79253
1.03453
1.01257
0.579147
1.14835
1.11428
2.93421
1.0166
0.965921
0.758181
0.843892
0.222944
2.65656
2.44934
1.01208
1.07426
1.2065
3.11217
0.827591
26.5378
1.00731
2.63715
1.02151
1.10375
1.30153
0.865517
0.301839
1.32009
0.6927
0.233092
0.935716
0.821322
0.883622
3.31698
1.00867
1.01606
0.663568
0.113419
0.50266
0.541622
2.62591
1.00197
1.00645
2.61128
1.83221
1.9268
1.00775
2.46184
1.75287
2.32991
1.60533
1.67797
2.38803
2.48049
1.33212
1.33796
1.00141
1.00287
2.162
1.20977
1.20483
1.83339
1.99658
1.41169
2.16526
1.53728
1.00443
2.29049
1.59218
1.8098
1.8949
1.97572
2.06312
1.8994
1.99654
1.15668
1.26672
2.2976
1.57323
2.04511
1.36498
2.30364
1.36475
1.47611
1.0013
2.03482
1.47945
1.50789
2.32751
1.20392
1.24364
2.15227
2.22939
1.62037
1.72002
0.976739
8.42673
9.00815
0.899355
0.845725
4.1075
0.940712
3.93826
0.967086
4.664
5.34179
0.930342
5.78809
