# vtk DataFile Version 2.0
Unstructured Grid by M++
ASCII
DATASET UNSTRUCTURED_GRID
POINTS 4072 float
  0.562500   0.968750 0
  0.906250   0.500000 0
  0.750000   0.781250 0
  0.953125   0.531250 0
  0.984375   0.875000 0
  0.828125   0.828125 0
  0.828125   0.859375 0
  0.562500   0.765625 0
  0.937500   0.687500 0
  0.968750   0.578125 0
  0.968750   0.781250 0
  0.734375   0.843750 0
  0.968750   0.718750 0
  0.734375   0.796875 0
  0.984375   0.718750 0
  0.984375   0.703125 0
  1.000000   0.750000 0
  0.984375   0.734375 0
  1.000000   0.718750 0
  0.953125   0.859375 0
  0.953125   0.843750 0
  0.937500   0.843750 0
  0.921875   0.640625 0
  0.937500   0.625000 0
  0.671875   0.906250 0
  0.687500   0.890625 0
  1.000000   0.687500 0
  0.828125   0.796875 0
  0.828125   0.750000 0
  0.515625   0.750000 0
  0.828125   0.937500 0
  0.968750   0.625000 0
  0.984375   0.593750 0
  0.984375   0.796875 0
  0.750000   0.859375 0
  0.859375   0.937500 0
  0.828125   0.953125 0
  0.859375   0.781250 0
  0.593750   0.515625 0
  0.984375   0.750000 0
  0.734375   0.828125 0
  1.000000   0.734375 0
  0.750000   0.812500 0
  0.953125   0.562500 0
  0.968750   0.750000 0
  0.734375   0.812500 0
  0.968750   0.546875 0
  0.843750   0.906250 0
  0.875000   0.875000 0
  0.578125   0.640625 0
  0.750000   0.968750 0
  0.984375   0.906250 0
  0.625000   0.515625 0
  0.937500   0.593750 0
  0.781250   0.578125 0
  0.640625   0.968750 0
  0.937500   0.531250 0
  0.937500   0.515625 0
  0.953125   0.500000 0
  0.703125   0.796875 0
  0.859375   0.718750 0
  0.703125   0.765625 0
  0.921875   0.703125 0
  0.687500   0.765625 0
  0.921875   0.500000 0
  0.718750   0.781250 0
  0.734375   0.765625 0
  0.968750   0.687500 0
  0.968750   0.890625 0
  0.734375   0.953125 0
  0.859375   0.828125 0
  0.890625   0.484375 0
  0.843750   0.843750 0
  0.828125   0.765625 0
  0.968750   0.906250 0
  0.796875   0.578125 0
  0.765625   0.828125 0
  0.609375   0.968750 0
  0.734375   0.656250 0
  0.671875   0.875000 0
  0.531250   0.906250 0
  0.546875   0.921875 0
  0.765625   0.656250 0
  0.531250   0.937500 0
  0.531250   0.734375 0
  0.765625   0.671875 0
  0.843750   0.734375 0
  0.843750   0.937500 0
  0.609375   1.000000 0
  0.593750   0.796875 0
  0.828125   0.734375 0
  0.578125   0.812500 0
  0.671875   0.562500 0
  0.781250   0.562500 0
  0.656250   1.000000 0
  0.765625   0.796875 0
  0.656250   0.593750 0
  0.796875   0.562500 0
  0.625000   0.828125 0
  0.625000   0.625000 0
  0.859375   0.562500 0
  0.796875   1.000000 0
  0.890625   0.781250 0
  0.875000   0.781250 0
  0.625000   0.859375 0
  0.843750   0.781250 0
  0.859375   0.765625 0
  0.843750   0.765625 0
  0.859375   0.750000 0
  0.843750   0.750000 0
  0.765625   1.000000 0
  0.781250   0.984375 0
  0.875000   0.625000 0
  0.875000   0.812500 0
  0.640625   0.875000 0
  0.562500   0.906250 0
  0.796875   0.843750 0
  0.796875   0.828125 0
  0.656250   0.906250 0
  0.890625   0.640625 0
  0.875000   0.843750 0
  0.859375   0.843750 0
  0.625000   0.906250 0
  0.812500   0.875000 0
  0.859375   0.515625 0
  0.812500   0.843750 0
  0.796875   0.875000 0
  0.796875   0.859375 0
  0.593750   0.968750 0
  0.859375   0.875000 0
  0.625000   0.937500 0
  0.843750   0.875000 0
  0.593750   0.953125 0
  0.859375   0.859375 0
  0.828125   0.671875 0
  0.890625   0.765625 0
  0.656250   0.828125 0
  0.656250   0.625000 0
  0.890625   0.562500 0
  0.640625   0.843750 0
  0.640625   0.640625 0
  0.875000   0.578125 0
  0.890625   0.750000 0
  0.875000   0.765625 0
  0.562500   0.625000 0
  0.968750   0.500000 0
  0.734375   0.562500 0
  0.937500   0.578125 0
  0.703125   0.640625 0
  0.656250   0.984375 0
  0.640625   1.000000 0
  0.953125   0.578125 0
  0.671875   0.984375 0
  0.906250   0.921875 0
  0.921875   0.687500 0
  0.671875   0.765625 0
  0.687500   0.750000 0
  0.906250   0.484375 0
  0.984375   0.921875 0
  0.734375   1.000000 0
  1.000000   0.906250 0
  0.750000   0.984375 0
  0.828125   0.843750 0
  0.593750   0.906250 0
  0.828125   0.640625 0
  0.843750   0.828125 0
  0.609375   0.890625 0
  0.609375   0.687500 0
  0.843750   0.625000 0
  0.734375   0.875000 0
  0.968750   0.812500 0
  0.859375   0.812500 0
  0.625000   0.875000 0
  0.859375   0.609375 0
  0.843750   0.812500 0
  0.859375   0.796875 0
  0.828125   0.812500 0
  0.593750   0.875000 0
  0.828125   0.609375 0
  0.781250   0.843750 0
  0.515625   0.921875 0
  1.000000   0.781250 0
  0.765625   0.843750 0
  1.000000   0.578125 0
  0.765625   0.968750 0
  0.890625   0.703125 0
  0.656250   0.765625 0
  0.890625   0.500000 0
  0.875000   0.703125 0
  0.937500   0.937500 0
  0.984375   0.578125 0
  0.578125   0.531250 0
  0.875000   0.609375 0
  0.640625   0.671875 0
  0.796875   0.625000 0
  0.859375   0.593750 0
  0.625000   0.656250 0
  0.609375   0.671875 0
  0.593750   0.687500 0
  1.000000   0.562500 0
  0.765625   0.625000 0
  0.656250   0.578125 0
  0.625000   0.546875 0
  0.671875   0.812500 0
  0.906250   0.750000 0
  0.796875   0.546875 0
  0.828125   0.718750 0
  0.578125   0.781250 0
  0.875000   0.656250 0
  0.640625   0.718750 0
  0.734375   0.984375 0
  0.968750   0.921875 0
  0.609375   0.531250 0
  0.953125   0.921875 0
  0.968750   0.937500 0
  0.593750   0.546875 0
  0.765625   0.609375 0
  0.531250   0.671875 0
  0.781250   0.593750 0
  0.546875   0.656250 0
  0.656250   0.656250 0
  0.890625   0.593750 0
  0.656250   0.859375 0
  0.921875   0.671875 0
  0.968750   0.734375 0
  0.718750   0.812500 0
  0.812500   0.984375 0
  0.562500   0.796875 0
  0.750000   0.640625 0
  0.765625   0.687500 0
  0.531250   0.953125 0
  0.687500   0.656250 0
  0.921875   0.593750 0
  1.000000   0.593750 0
  0.750000   0.671875 0
  0.671875   0.750000 0
  0.906250   0.687500 0
  1.000000   0.656250 0
  0.812500   0.562500 0
  0.687500   0.796875 0
  0.921875   0.734375 0
  0.828125   0.546875 0
  1.000000   0.625000 0
  0.953125   0.968750 0
  0.750000   0.906250 0
  0.515625   0.968750 0
  0.812500   0.531250 0
  1.000000   0.796875 0
  0.515625   0.937500 0
  0.750000   0.875000 0
  0.812500   0.703125 0
  0.796875   0.703125 0
  0.812500   0.593750 0
  0.937500   0.562500 0
  0.656250   0.968750 0
  0.890625   0.906250 0
  0.703125   0.625000 0
  0.953125   0.546875 0
  0.671875   0.953125 0
  0.906250   0.890625 0
  0.984375   0.781250 0
  0.796875   0.687500 0
  0.562500   0.953125 0
  0.968750   0.875000 0
  0.718750   0.953125 0
  0.562500   0.937500 0
  0.781250   0.781250 0
  0.953125   0.875000 0
  0.718750   0.937500 0
  0.953125   0.671875 0
  0.796875   0.656250 0
  0.828125   1.000000 0
  0.953125   0.890625 0
  0.703125   0.968750 0
  0.828125   0.625000 0
  0.781250   0.968750 0
  0.781250   0.671875 0
  0.781250   0.875000 0
  0.546875   0.937500 0
  0.906250   0.640625 0
  0.671875   0.703125 0
  0.640625   0.609375 0
  0.875000   0.546875 0
  0.906250   0.625000 0
  0.656250   0.703125 0
  0.656250   0.718750 0
  0.968750   0.531250 0
  0.734375   0.593750 0
  0.984375   0.531250 0
  0.781250   0.546875 0
  0.718750   0.609375 0
  0.906250   0.703125 0
  0.968750   0.593750 0
  0.687500   1.000000 0
  0.921875   0.937500 0
  0.906250   0.765625 0
  0.906250   0.562500 0
  0.718750   0.750000 0
  0.718750   0.546875 0
  0.953125   0.484375 0
  0.796875   0.593750 0
  0.515625   1.000000 0
  0.750000   0.937500 0
  0.906250   0.593750 0
  0.546875   1.000000 0
  0.781250   0.937500 0
  0.828125   0.593750 0
  0.984375   0.609375 0
  0.937500   0.953125 0
  0.796875   0.515625 0
  0.968750   0.609375 0
  0.734375   0.671875 0
  0.906250   0.781250 0
  0.671875   0.843750 0
  0.515625   0.890625 0
  0.687500   0.625000 0
  0.921875   0.562500 0
  0.843750   0.531250 0
  1.000000   0.765625 0
  0.750000   0.843750 0
  0.812500   0.671875 0
  0.687500   0.921875 0
  0.765625   0.515625 0
  0.953125   0.609375 0
  0.921875   0.625000 0
  0.687500   0.687500 0
  0.812500   0.656250 0
  0.812500   0.859375 0
  0.578125   0.921875 0
  0.796875   0.765625 0
  0.890625   0.687500 0
  0.578125   0.750000 0
  0.812500   0.687500 0
  0.578125   0.953125 0
  0.796875   0.796875 0
  0.984375   0.890625 0
  0.734375   0.968750 0
  0.718750   0.640625 0
  0.968750   0.562500 0
  0.687500   0.968750 0
  0.921875   0.906250 0
  0.765625   0.953125 0
  0.812500   0.609375 0
  0.812500   0.734375 0
  0.875000   0.562500 0
  0.968750   0.656250 0
  0.796875   0.734375 0
  0.812500   0.828125 0
  0.578125   0.890625 0
  0.781250   0.687500 0
  0.984375   0.671875 0
  0.578125   0.828125 0
  0.812500   0.765625 0
  0.875000   0.593750 0
  1.000000   0.875000 0
  0.765625   0.937500 0
  0.843750   0.656250 0
  0.843750   0.859375 0
  0.609375   0.921875 0
  0.828125   0.687500 0
  0.937500   0.656250 0
  0.937500   0.859375 0
  0.703125   0.921875 0
  0.984375   0.640625 0
  0.890625   0.468750 0
  0.656250   0.734375 0
  0.890625   0.671875 0
  0.890625   0.875000 0
  0.656250   0.937500 0
  0.578125   0.859375 0
  0.812500   0.796875 0
  0.843750   0.890625 0
  0.609375   0.953125 0
  0.937500   0.875000 0
  0.687500   0.953125 0
  0.843750   0.953125 0
  0.828125   0.703125 0
  0.593750   0.765625 0
  0.937500   0.546875 0
  0.781250   0.531250 0
  0.781250   0.734375 0
  0.546875   0.796875 0
  0.796875   0.718750 0
  0.562500   0.984375 0
  0.984375   0.812500 0
  0.562500   0.812500 0
  0.796875   0.750000 0
  0.562500   0.875000 0
  0.796875   0.812500 0
  0.640625   0.750000 0
  0.875000   0.687500 0
  0.703125   0.671875 0
  0.937500   0.609375 0
  0.562500   0.843750 0
  0.796875   0.781250 0
  0.781250   0.750000 0
  0.781250   0.609375 0
  0.812500   0.953125 0
  0.812500   0.718750 0
  0.953125   0.593750 0
  0.718750   0.656250 0
  0.671875   1.000000 0
  0.796875   0.953125 0
  0.843750   0.609375 0
  0.812500   0.812500 0
  0.812500   0.781250 0
  0.750000   0.953125 0
  0.750000   0.750000 0
  0.984375   0.687500 0
  0.781250   1.000000 0
  0.765625   0.546875 0
  0.765625   0.750000 0
[...]
POINT_DATA 4072
SCALARS scalar_value float 1
LOOKUP_TABLE default
0.00029207
-0.00131993
0.0024504
-0.000104033
-2.03745e-07
0.000287116
0.000191959
0.00744693
-4.07746e-05
1.72222e-05
-4.28149e-06
0.00127895
-1.0241e-06
0.0031311
3.0747e-06
4.00171e-06
2.38236e-06
2.27123e-06
3.42432e-06
-3.19431e-06
-3.86246e-06
2.34985e-06
-0.000124577
-7.82776e-05
0.000738088
0.00107558
4.7105e-06
0.000460734
0.000991862
0.00991094
6.6304e-05
1.0847e-05
1.42673e-05
8.25297e-08
0.000476328
4.21737e-05
4.4489e-05
0.000256257
0.113475
1.57835e-06
0.00179114
2.86789e-06
0.00149971
-8.30906e-05
-2.96949e-06
0.00240468
1.6604e-05
0.000101254
2.81983e-05
0.0293731
0.000104775
-6.07364e-08
0.119588
-0.000129798
0.0115239
0.000142758
-0.000413026
-0.000421961
-7.02409e-05
0.00469375
0.000652309
0.0072942
-5.8937e-05
0.007207
-0.000651925
0.00527918
0.00497826
1.7931e-06
-2.04694e-06
0.000204218
0.000103461
-0.00119839
0.000175829
0.00077264
-1.51802e-06
0.0118539
0.000654913
0.000147472
0.0165802
0.00129257
0.00165911
0.00118502
0.00544
0.000943909
0.00974741
0.00463317
0.000871927
5.90058e-05
0
0.00240495
0.00125759
0.00334193
0.0607306
0.0136306
0
0.00103849
0.0484056
0.0137647
0.00244429
0.0359343
0.000310288
0
6.40539e-05
0.000138334
0.00151383
0.000420777
0.000342262
0.000546326
0.000437392
0.000696843
0
1.41154e-05
0.00048007
3.41625e-05
0.00116401
0.00129253
0.000276469
0.000361356
0.000664909
1.26292e-05
3.29526e-05
9.15143e-05
0.000700659
0.000133436
-8.09143e-05
0.000241948
0.000164721
0.000213504
0.000116715
7.85404e-05
0.000379239
0.000137398
0.000191003
8.33559e-05
0.00282671
7.36345e-05
0.00253484
0.0320154
-0.000962219
0.0019523
0.0281608
-0.000187524
8.03839e-05
0.000187851
0.0299077
3.33167e-05
0.0414782
-0.000202642
0.0316777
5.90561e-05
0
-4.85528e-05
6.1231e-05
6.41113e-06
-7.24598e-05
0.00643156
0.00877273
-0.000979656
-2.71949e-08
0
4.1894e-07
4.99838e-05
0.000233008
0.000499527
0.0038779
0.000205307
0.000814665
0.0110191
0.00252145
0.000561604
-4.39385e-06
0.000122778
0.00118312
0.00125364
0.000248807
0.000181316
0.000359717
0.000811438
0.00492362
0.00037477
0.00118915
1.63784e-06
0.000506219
9.33607e-06
6.85712e-05
8.3974e-05
0.00627957
-0.00153971
0.000376055
-5.39329e-07
1.62451e-05
0.099507
0.000403283
0.0177214
0.00714632
0.00110271
0.0208401
0.0156389
0.0119964
9.85628e-06
0.00750289
0.0610824
0.102125
0.00343749
-1.85514e-05
0.0158942
0.00157264
0.00493283
0.000487988
0.010241
6.53087e-05
-1.10278e-06
0.108505
-1.56109e-06
-7.80967e-07
0.0854365
0.00882159
0.016502
0.00967817
0.0186618
0.0215896
-0.000258762
0.00153163
-8.76968e-05
-2.08319e-06
0.00324012
1.11436e-05
0.00534346
0.0110115
0.00393851
0.000649829
0.0267855
-0.000221045
8.77689e-06
0.0083506
0.00772403
-7.56602e-05
6.1283e-06
0.0107677
0.00471206
-3.63877e-05
0.0062816
7.52672e-06
-4.67487e-07
0.000193578
0.000361165
0.013564
1.37332e-06
0.000869214
0.000238085
0.00247297
0.0025652
0.00850593
-0.000396275
0.000132164
2.60379e-05
0.0378654
-0.000101558
0.000244677
1.17874e-05
4.7612e-07
0.00319317
0.000483818
-2.64608e-06
0.000272798
0.000711266
0.000840706
-2.91892e-06
0.000364874
-1.35455e-05
0.00485246
0
-2.56348e-06
0.000179611
0.00441919
3.16783e-05
0.00369334
0.000224884
0.000868322
-0.000157974
0.0130385
0.0442887
-0.00119298
-0.000198365
0.012596
0.0106636
1.8741e-05
0.0303683
2.11178e-05
0.0160374
0.0381036
-5.71689e-05
1.58483e-05
0
4.39738e-07
-9.43355e-06
-0.000671659
0.00811389
0.07403
-1.8241e-05
0.0101195
0
0.000153644
-0.000318901
0
8.94083e-05
0.00534688
1.23823e-05
-3.72797e-07
0.0210998
1.35127e-05
0.0143099
-1.46554e-06
0.00214457
0.00199374
0.0396059
-0.000429919
0.00209133
1.97243e-06
0.000776542
0.00373991
0.000601532
0.0225651
-2.02377e-05
-0.000147867
0.0183733
0.004524
0.000182324
0.000649996
0.00101009
7.77702e-05
0.00726284
0.00305755
0.00032174
0.00061221
-1.21545e-07
0.000137727
0.0273242
1.69546e-05
0.000163684
1.51126e-06
0.000104617
0.00742286
0.00156648
-0.00111348
5.77524e-06
0.0016273
0.000319668
0.00111653
0.00301079
6.25425e-06
0.00273064
0.000950223
0.000218741
6.34857e-07
0.000124741
0.00205904
0.000154195
0.000479962
0.00235794
-5.60778e-05
3.15476e-06
0.000591124
9.04431e-06
-0.00108362
0.00903495
6.56595e-05
2.33892e-05
0.000339023
0.00178305
0.000555327
0.000121358
0.000241065
3.84978e-06
0.000282251
3.90708e-05
0.00193919
0.0039117
-0.00040428
0.0188057
0.00160551
0.00567618
0.00204877
0.000131967
-1.62537e-07
0.00450148
0.00128559
0.0020801
0.000471744
0.0076861
0.000419852
0.0223057
-9.6872e-05
0.00312688
0.000788961
0.0012953
0.00807069
4.77405e-05
0.00197888
-2.93262e-05
0.0232524
0
3.70066e-05
0.00265006
0.000421455
0.000729069
0.000152813
0.00371004
5.06048e-06
0
0.0166527
0.00193622
0.00511726
-0.000125104
0.000537355
0.00376773
0.00122657
0.000452906
0.00195498
1.07309e-05
0.0103717
0.000552222
0.00231053
7.67046e-06
2.41278e-05
-1.62778e-05
0.0167877
5.13656e-05
0
5.9736e-05
1.97149e-05
0.0145936
5.47717e-05
0.00776899
0.00585941
2.25022e-05
0.0195425
0.0290304
0.00446533
0.00643618
1.91437e-05
0.00658244
0.00622573
0.00868036
-4.18809e-05
0.00528863
-0.000300635
0.000893019
-0.000507045
0
0.0011308
0.0120837
0.00721008
1.60863e-05
-1.13303e-06
0
0.00416899
-1.16332e-05
1.05798e-05
0.000499756
0.0583021
8.44935e-05
0.00407488
2.69314e-05
0.00127789
0.0094043
-2.05287e-06
0.000172813
-1.27272e-05
-0.00012076
2.23177e-05
0
4.52193e-05
1.59487e-05
1.05469e-05
6.72829e-06
4.49068e-06
0
0
1.83282e-05
0.00540796
9.41081e-06
2.53438e-05
0.0924921
2.7643e-05
2.78908e-05
0
0.09018
0.00014137
8.02054e-05
0
0
0.00333836
-2.91942e-05
0.0222593
0.000283103
8.5872e-05
0.00876854
-9.80328e-05
0.00760344
0.0012254
0.00824403
0.00101568
0.00632556
0.00530377
7.58259e-06
-1.44234e-07
0
0.0120533
0.0436371
0
0.0754662
-4.51346e-09
-0.00141259
0.070668
9.08966e-08
-2.68835e-05
0.0588809
-2.48579e-09
0.0556995
3.98296e-08
2.3066e-07
0.0885223
1.54314e-07
0.000299779
1.41954e-07
0.110027
-6.58588e-07
7.0225e-05
0.00920428
-2.13215e-07
0.00681558
0.0529482
-3.17107e-07
0.00224231
0.0685359
0.0818601
-6.85681e-09
0.00129372
0.00597133
0.000770446
7.13191e-05
0.000157809
0.00386917
0.00107122
6.76848e-05
0.00391233
0.000540923
0
5.41188e-06
0.0023412
0.00516344
0.000330004
6.52693e-05
0.00198518
0.00594367
0.00320897
0.00023582
0.0076164
0.0183093
0.0450874
0.0154045
0.0623063
0.00854923
0.016115
0.00961323
0.0196186
0.0252156
0.0184886
0.000162183
0
0
5.17943e-05
1.29372e-05
4.48634e-06
1.06116e-05
1.81403e-05
9.81785e-07
0.00111612
9.98585e-06
5.71592e-06
4.3726e-06
2.72333e-06
1.46824e-06
0.000195435
9.29519e-05
0.000109349
7.48573e-05
5.33947e-05
8.59124e-05
8.66632e-07
7.46479e-07
0.000173725
-2.70816e-07
-2.23006e-07
-9.88191e-08
5.7822e-07
2.42004e-06
0
0
-3.71103e-06
5.2538e-07
3.23168e-05
3.19513e-07
0
-1.23839e-08
0.000277869
0.000162053
-0.00129435
0.000113075
0.000135185
1.00371e-06
-2.99745e-07
-7.71101e-07
-0.000177564
0.00223529
-9.81603e-06
0.00247422
-1.02967e-05
-9.36059e-06
1.62165e-05
0.0004267
9.01951e-06
3.21338e-06
8.8289e-06
0.000777755
-4.79298e-06
-4.03301e-06
2.33491e-07
0.000238778
0.00741864
3.62957e-06
4.60585e-05
2.83557e-05
-1.31698e-05
0.000891753
0.0149263
-3.86287e-05
-4.5489e-06
-3.14142e-06
1.09427e-07
3.78691e-08
0.000309435
0.00137004
-7.91555e-06
-6.01681e-06
0.00132037
5.7549e-07
7.97395e-07
0.00292747
0.000679308
-1.10084e-05
0.00370209
-1.856e-05
0.00752068
0.00179534
7.88972e-05
-6.83804e-07
7.86531e-05
0.00588467
-2.85227e-05
0
3.75886e-05
2.08631e-05
0.00127962
0.000379108
0.00180789
-3.91596e-06
1.11392e-06
-4.98842e-06
1.51678e-05
0
0.00222875
0.0440686
0.0020945
0.00251127
9.44276e-05
4.04271e-06
0.00158651
0.00369655
0.00128871
0.00414362
0.00104342
0.0025628
0.000829781
0.00296089
-1.86623e-05
-1.09779e-05
-1.41738e-05
0.000236201
4.78423e-05
-0.000104901
0.0127363
0.109389
0
8.94663
0.00598346
0.00522913
0.00201257
0.00154637
0.000211504
7.59118
0
9.41
0.00428982
0.00269046
7.09074e-05
7.91936
0.000379645
0.000105879
4.67201
0.0198102
-1.17311e-05
0.0121753
-0.00105655
0.000104044
1.57416e-06
0.0356214
0.0357994
1.46218e-06
0.00244803
0.0186069
9.81935
0.00110319
3.3584e-05
0.0657371
0.0109448
0.00698282
0.000152595
2.62341
0.00894291
0.00435242
0.00156119
8.59571e-05
8.47166
0.00786243
0.0236097
0.0181948
-0.0506139
0.00178524
-0.0624203
-0.0137562
3.40385e-05
-0.0299457
10.3097
0.129853
9.09967
-8.95729e-06
0.0147306
-0.000381751
0.000522556
0.00376552
0.000238344
0.00870112
0.00268954
10.6514
0.0553122
0.0172489
0.00145775
-0.000156018
0.0098773
0.00129419
4.62249e-07
9.24874
0.228748
9.18457
1.03106e-05
0.0112666
0.000370289
0.000622434
0.0426205
0.00171802
8.71078e-05
8.69877
-0.000756388
0.0983412
0.0202088
0.000672798
-2.54968e-05
0.00223637
0.020552
-0.000178914
8.36008e-05
0.00642746
0.00682828
0.0040868
0.00168966
0.00106895
0.0204574
0.0150937
1.35385e-05
0.0156076
0.00854941
0.00572248
0.00197757
0.00100356
0.00167285
0.000902787
0.00406761
0.0031564
0.00193462
0.0025478
3.26615e-05
0.000646801
0.115973
0.063636
1.73806e-05
0.00073034
0.0533206
0.0543471
0.0276192
-0.05215
0.00025192
7.40023e-06
0.0643946
0.0420386
0.000111576
0.535816
0.030928
0
0.256649
0.027974
0.0054087
0.0105935
2.28784e-05
-0.000587534
3.20653e-05
0.00122302
-0.0014047
9.86266e-06
0.0834159
0.0584243
0.0259343
0.0250616
0.0104806
0.00677696
0.0019266
0.000994327
0.06948
0.0569953
0.0321873
0.0210007
0.0191912
0.0177942
0.0454645
0.0218395
-0.00106728
0.110748
0.047438
0.00117575
0.000511554
0.000336707
0.0910164
0.0446974
0.000693551
0.000641691
0.000444693
0.00151241
0.000445915
0.0676178
0.0245512
0.000887529
3.39239e-05
1.44744e-05
9.10067e-05
3.56917
0
2.49085
0.00140863
0.00093118
0.0517728
-3.3663e-05
0.00398467
0.00360796
-0.000203545
0.0112851
0.00182919
0.000456893
0.00658866
0.00394656
0.000472677
0.0276844
0.0222214
0.00309549
0.00188125
0.00250805
0.000908539
-0.00292426
0.00889749
0.0076075
0.00592606
0.000180058
1.71602
0.000251686
4.71655
0.228512
0.0277737
0.00322661
0.00177179
0.00272681
0.00161432
0.0159826
0.0107247
0.0195557
0.00878582
-3.59728e-06
0.000358386
0.0262711
0.0134349
0.00334695
0.0367745
0.0213267
8.00431e-06
3.93489e-05
0.000996846
0.00116147
0.00349485
0.0241934
0.0183479
0.00108708
0.00182731
1.60474e-05
0.0242799
0.507677
-0.000123809
0.00327289
0.00757062
0.000460148
5.85752
0.013447
-0.00396516
0.000320001
0.00544268
0.000397815
0.000220588
0.00447619
-0.000257942
0.000556569
0.000802411
0.00436803
0.000605312
0.0306247
0.0231243
0.000219992
0.000632717
0.000784142
0.175771
0.0636233
-0.000615391
9.17209
2.03404e-07
0.156444
-0.000530233
9.04212
9.32832e-05
0
0.25748
0.109733
8.65835
1.32817
1.10959
-3.25159e-06
1.06245
1.31166
0.0980641
-0.000369644
0.0392371
0.00650149
0.478866
1.22259
-8.91998e-05
0.00272991
-7.85724e-06
0.763882
0.0796834
0.0400787
0.0671479
8.85445
1.39649e-05
0.0478442
3.72379
0.0256387
0.000542377
-0.0143444
3.2948
0.00123841
6.23602
0.0532118
0.0391591
1.55674e-05
-4.80413e-05
0.00141132
0.0483941
5.48401
-0.000828445
-0.00248804
0.0142633
1.1217e-05
1.90192
-8.23897e-05
0.0314114
4.81497
-0.000585094
4.94083
1.74593
1.61805
2.74087
0.131481
2.62185
0.0190303
0.921914
-4.62577e-05
0.0996196
-2.37491e-05
6.63814
-0.000102087
-8.42989e-05
0.0631667
0.911942
-0.0333557
0.00243652
9.9662
-1.30559e-06
0.216656
0.109747
0.130429
0.0193289
0.000123423
10.4693
0.00113523
10.2164
0
-6.7072e-05
-0.00186953
-0.0820697
-2.3224e-07
0.0129257
0.782394
-0.000549582
10.2362
0
0.137113
0.00033174
0.00306966
0.0030043
0.671096
3.50475
0.00293587
0.00167686
0.001522
0.289288
0.784418
0.00473851
0.586755
-0.00020313
0.294191
0.801935
0.000882526
-0.00186047
0.178272
0.615947
0.838202
0.0395312
0.000134992
0.000160925
0.00365984
0.0262114
0.000212229
1.14217
0.652455
0.261357
2.77458e-05
0.119329
-0.00498473
-0.0291956
0.0120247
0.00925984
0.429682
0.871671
-0.00418438
0.253556
-0.000134497
0.803196
0.000151348
-9.75969e-05
2.78127
0.00409515
0.0204188
0.000656071
0.000229822
-2.66295e-05
4.80317
0.0125506
0.0597347
4.54223
0.00626293
-0.0388411
-0.00525051
0.0576085
-9.99517e-05
0.776395
-0.000149849
0.00525205
0.0096324
0.0863456
1.61096
0.00217804
0.000214943
0.304766
-0.0112029
0.000398535
0.103755
0.882687
-9.00282e-05
-0.000101633
0.0490337
-0.000103905
5.75268e-06
0.000394344
0.257624
-0.0184191
0.122161
0.137515
0.16392
0.0496493
8.25117
-0.0381308
1.23599
3.794
-0.038019
-0.0249421
2.53109e-07
-8.00333e-05
0.594392
4.47802e-05
0.00422364
0.0270901
-7.29275e-05
0.993976
-1.1013e-05
0.00436102
0.0293548
-9.14917e-05
0.694229
6.20971e-05
3.0841
1.61003
3.27151e-05
2.54318
8.1263e-05
10.7608
-8.32475e-07
-0.0201968
0.00145579
10.5524
-3.05315e-06
-0.0350495
-0.00777539
0.471133
2.43645
-0.0231854
0.743926
3.32138
-0.0116608
-1.22089e-05
2.99897
0.0593804
0.000273995
-4.16743e-06
0.00737904
0.980643
8.4305
-5.74727e-06
0.0714787
0.334864
0.00105867
-7.45958e-06
9.03659
-5.77043e-06
8.78698
0
0.0360981
0.000864893
0.000949968
-7.37081e-05
0.865544
-6.03389e-05
1.72848
-0.0071878
0.856228
-0.000103299
1.05883
6.33674
-0.00633459
0.000522976
6.97359
-0.00235025
0.00136528
7.72133e-06
9.77347
-0.00118606
1.18771
1.97638
0.00290887
0.00153387
2.91302e-06
9.65748
-0.0112953
0.0529386
1.31795
0.0302109
5.19251
-2.72299e-05
0.0341021
1.65007
0.620816
0.0181669
5.79182
-3.62196e-08
10.3228
7.69509
1.07894
0.0766259
0.0364329
-0.00198937
-0.0106182
6.84972
0.318494
9.69046
0.0631182
3.48334
0.0150338
-0.0119454
0.0660155
9.64597
-0.00740253
1.63695
3.02183
-0.000453258
2.40311
-0.0108953
0.00205116
8.85261
-0.00935199
1.42757
-0.00834499
7.1323
1.68934
0.0920227
0.0426755
-0.00530548
-0.0217795
7.91987
-0.00513624
0.0650464
5.58158
0.00388588
0.0123358
-0.00909935
-0.0493331
-1.05368e-05
2.04027
0.0927358
0.0330824
-0.00734373
-0.0386461
0.392816
0.302664
-0.00131109
0.0450202
1.71731e-05
0.902114
5.0453
0.0374593
0.00578563
0.355756
1.51827
0.000229315
0.000262157
0.000153617
-8.59884e-05
1.11184
0.587321
-0.0133334
0.0516514
0.248436
0.000875855
-0.0256372
-0.0390744
0.035473
0.00485184
0.266946
1.68281
0.000729426
-0.0128368
0.00078633
-0.0118827
0.019146
0.000288822
7.98574
-5.71149e-05
6.40771
0.523824
0.20024
0.522857
0.0853214
-2.33235e-08
0.0172758
0.000491662
3.10246e-05
-5.31672e-05
0.0220444
-9.61451e-05
5.62667
-0.00306377
-0.000226974
0.016977
0.0262426
-0.00242744
-3.43322e-05
9.27458
7.80901e-07
4.39535
-0.0179963
0.0743866
0.230074
0.010626
-8.53533e-06
0.288441
0.000190564
1.04113
3.66861
-0.000133316
0.423321
0.0521459
0.284505
5.10268
-0.00879276
0.0454991
0.198014
0.251105
-0.00636045
0.0249624
7.24379
0.0145316
-0.0287491
-0.018045
7.82572
0.00616881
8.01721
0.0405375
0.973656
2.85812
-6.40682e-05
2.40485
0.0453525
3.75352e-05
1.25433e-05
0.258952
0.715799
-0.000512941
0.087015
-0.00198767
1.01189
0.00529227
9.89626
0
0.297932
4.72149e-05
5.98181
0.0768114
0.00317773
9.58769
0.828497
0.0137412
0.0370292
5.41917
0.154112
0.0215738
-0.00112077
0.00543172
0.00689247
6.37293
0.215453
0.481478
0.281354
0.000515149
-0.00160331
0.0176673
-0.000377757
0.302343
0.52786
0.0157046
4.24318e-05
0.112118
4.89862
0.141528
0.00723287
0.914832
-0.0116602
-0.00232261
0.00022491
4.19405e-06
1.02188
-2.14587e-05
0
0.000640096
5.52201e-06
0.230199
0.209377
0.000215302
3.1412e-05
0.216406
0.0156798
-6.57428e-05
0.450333
0.152701
0.0191727
4.83238
0.778461
0.000235991
0.231245
-0.0256945
10.2789
-0.0129117
0.151155
0.244299
-0.00274004
0.0205832
0.00279705
0.480125
0.265932
0.0544592
9.92314
-3.02213e-06
0.0801264
0.0158396
0.108223
0.614003
0.00123997
0.230628
0.00841551
0.0337562
0.0183949
-0.00565977
0.275353
1.76677
3.02849
4.32807
-8.16276e-05
0.0239732
0.0872137
0.366354
1.79865
-0.000139671
2.62341
-0.0010769
-0.000101854
1.33698
0.0368697
0.00592786
0.0712373
0.609518
0.00037648
8.83122
0.000690247
1.07026e-05
0.000191644
0.0282407
0.000382153
0.276715
0.939891
-9.13039e-05
0.284401
0.23397
0.507013
1.88616
0.000315532
0.00875351
0.429546
0.286066
0.0280641
0.000119784
7.04932
-0.0161562
9.22901
0.376396
0.872765
-6.97446e-05
3.60778
-1.26131e-05
0.238367
9.32482
0.000880766
-0.0131127
0.651867
4.17416
0.0250598
0.00301164
1.21847
0.000649308
0.00115552
1.35
0.093959
7.56408
-4.9888e-07
0.0006113
0.00344397
0.127015
0.00595934
0.0127612
2.35599
6.52369
0.119436
-0.0408893
10.5443
0.0525974
0.648767
0.274348
0.806439
0.00111266
-0.0367123
10.7905
0.0352452
2.64697
-0.0331769
0.251006
0.00199197
0.103094
0.000311276
6.84079
-0.0103357
1.99917
0.000417129
-3.28384e-05
0.235562
0.00312792
0.485412
2.48331
1.42903
-8.4604e-05
0.739721
1.83045
-0.0002352
0.187176
0.000165903
-1.35735e-05
0.113914
0.00918814
-0.0375119
2.8209
9.60507
-9.82522e-05
1.80483
-5.25476e-07
-1.04143e-05
0.770079
0.00325213
0.335648
1.59118
0.290119
1.47297e-05
0.22335
2.90957e-05
0.115864
0.189083
-6.74364e-05
0.00026435
-0.0162401
0.12623
-0.00471878
0.0016589
1.20072e-05
2.19235
0.00087023
0.363178
0.0128636
0.160699
0.00115954
2.54585e-06
0.0042627
9.8809
-1.72952e-06
-0.00166269
-0.000115724
5.86339
-0.0253425
0.646305
1.37714
-3.34854e-05
7.98734e-05
3.56191e-05
0.286936
0.00237631
0.281927
0.0267147
0.00056257
7.72239
-0.000379095
0.320696
0.395848
-0.000672102
0.1175
0.0113025
-0.0224076
7.06424
1.25776
0.000506687
0.0108587
-4.79449e-05
6.33249
0.29854
0.650255
0.124312
0.0007812
-0.0436486
-0.00010379
-3.8929e-06
10.7403
-2.87446e-06
0.000220271
-0.000678451
0.00114687
0.192679
0.30817
9.52838
-5.32304e-05
0.260295
-0.00242766
0.00288297
9.37042
0
7.54258
0.0607217
0.318107
0.400306
0.0249245
0.00263363
0.208213
0.0743639
0.00328914
10.1819
-5.08964e-06
-0.0235961
0.00086144
-4.66775e-05
5.16743
0.172566
0.0700746
9.07503
1.04412
0.0771701
-0.0220725
-0.0192641
8.99134
-0.0201953
1.08239
-0.00200454
1.73936
0.00295371
0.000162563
1.61756e-05
0.00442896
3.92136
1.57674
1.6652
0.0242528
0.148237
0.0005705
0.00102128
0.0694642
0.0123945
0.1017
0.47411
0.00141666
0.154206
0.171589
0.892324
9.89292
3.37768e-06
-0.00559189
0.944813
0.479691
9.94659
-0.0296341
1.20101
0.00141729
-4.19416e-05
4.63472
1.31592
0.061963
0.146814
7.54701
2.86713e-06
0.000419568
0.000282198
2.65426
0.000228111
1.59683e-05
0.0188695
0.395144
4.2709
0.865414
9.14345e-05
0.136607
0.426077
0.00764068
-0.00551835
3.90989
0.00185955
2.70782
0.140312
8.82994
2.40563
0.882337
0.064635
0.758075
0.000891518
-0.0035134
0.000606438
0.101757
0.370086
-0.0413062
6.70279
-0.00423211
3.46834e-05
0.0984533
0.012817
2.85584
-0.000139412
0.121599
0.422373
0.99315
0.0127786
1.26157e-05
0.00181379
0.00014762
0.122876
-0.00159987
-2.05998e-05
0.000282678
0.000989785
4.10571e-05
0.0630874
8.04338
3.33084
0.398485
-3.94189e-05
1.68618
9.76236
1.32426e-05
2.35266
0.00124412
3.0716
0.274173
0.178966
0.000659959
-1.05988e-05
0.000709103
0.285968
0.113402
0.004976
9.69789
6.83695e-07
0.0529937
4.42731e-05
2.00176
0.000128531
10.4415
-0.0355936
1.44327
3.38957
7.73247e-05
4.4964e-05
0.0024715
4.53406e-05
0.131955
0.0225534
0.0594572
-9.63081e-05
0.174703
1.58778e-05
3.3787
0.116282
0.0283869
0.0605817
9.76279e-05
0.00999061
0.000229402
0.487193
0.00223455
7.13531
0.897239
0.161815
0.0736146
7.71133
-0.000442826
0.025714
2.37776e-05
1.9726
-0.000865667
1.54064
0.318604
0.341769
0.00597194
9.61042
0.154078
0.00158775
6.26353e-06
4.71851
-0.0091344
1.51765
7.22698
5.57272e-06
0.0605034
0.701804
0.00286619
-0.0481138
0.00120019
1.62128
0.000291794
-6.02096e-05
0.323696
0.150327
0.336655
-0.00252297
0.00145404
0.00829596
9.59627
5.85032e-06
0.00126651
0.00886542
0.747255
0.00963126
0.941603
9.53004
1.30919e-05
3.55654
-0.00230968
0.218112
0.0089958
0.00996525
0.0257055
4.26591
0.101943
-0.0167176
10.1464
5.25189
0.230834
0.188537
0.000243144
0.25675
0.0352963
0.00119532
0.000174826
1.37167
0.000403587
0.00279512
-4.45799e-05
0.0128493
6.03823
0.91098
7.1118e-06
0.0308196
-0.000132021
1.78652
0.735827
0.499117
1.22588
0.286032
0.469486
1.21539
2.75127
1.49898
2.15996
-0.000117627
0.00171677
9.24328
1.82273
2.45187e-05
9.18654
0.00136221
-8.90589e-05
0.0401604
0.888003
-8.32384e-05
-0.000102274
0.0946937
1.9408
0.13689
0.479231
1.75485
-0.000850316
0.164329
0.0118817
-1.39452e-05
0.00486495
-0.00231261
0.637831
8.11968e-06