# vtk DataFile Version 2.0
Unstructured Grid by M++
ASCII
DATASET UNSTRUCTURED_GRID
POINTS 4072 float
  0.562500   0.968750 0
  0.906250   0.500000 0
  0.750000   0.781250 0
  0.953125   0.531250 0
  0.984375   0.875000 0
  0.828125   0.828125 0
  0.828125   0.859375 0
  0.562500   0.765625 0
  0.937500   0.687500 0
  0.968750   0.578125 0
  0.968750   0.781250 0
  0.734375   0.843750 0
  0.968750   0.718750 0
  0.734375   0.796875 0
  0.984375   0.718750 0
  0.984375   0.703125 0
  1.000000   0.750000 0
  0.984375   0.734375 0
  1.000000   0.718750 0
  0.953125   0.859375 0
  0.953125   0.843750 0
  0.937500   0.843750 0
  0.921875   0.640625 0
  0.937500   0.625000 0
  0.671875   0.906250 0
  0.687500   0.890625 0
  1.000000   0.687500 0
  0.828125   0.796875 0
  0.828125   0.750000 0
  0.515625   0.750000 0
  0.828125   0.937500 0
  0.968750   0.625000 0
  0.984375   0.593750 0
  0.984375   0.796875 0
  0.750000   0.859375 0
  0.859375   0.937500 0
  0.828125   0.953125 0
  0.859375   0.781250 0
  0.593750   0.515625 0
  0.984375   0.750000 0
  0.734375   0.828125 0
  1.000000   0.734375 0
  0.750000   0.812500 0
  0.953125   0.562500 0
  0.968750   0.750000 0
  0.734375   0.812500 0
  0.968750   0.546875 0
  0.843750   0.906250 0
  0.875000   0.875000 0
  0.578125   0.640625 0
  0.750000   0.968750 0
  0.984375   0.906250 0
  0.625000   0.515625 0
  0.937500   0.593750 0
  0.781250   0.578125 0
  0.640625   0.968750 0
  0.937500   0.531250 0
  0.937500   0.515625 0
  0.953125   0.500000 0
  0.703125   0.796875 0
  0.859375   0.718750 0
  0.703125   0.765625 0
  0.921875   0.703125 0
  0.687500   0.765625 0
  0.921875   0.500000 0
  0.718750   0.781250 0
  0.734375   0.765625 0
  0.968750   0.687500 0
  0.968750   0.890625 0
  0.734375   0.953125 0
  0.859375   0.828125 0
  0.890625   0.484375 0
  0.843750   0.843750 0
  0.828125   0.765625 0
  0.968750   0.906250 0
  0.796875   0.578125 0
  0.765625   0.828125 0
  0.609375   0.968750 0
  0.734375   0.656250 0
  0.671875   0.875000 0
  0.531250   0.906250 0
  0.546875   0.921875 0
  0.765625   0.656250 0
  0.531250   0.937500 0
  0.531250   0.734375 0
  0.765625   0.671875 0
  0.843750   0.734375 0
  0.843750   0.937500 0
  0.609375   1.000000 0
  0.593750   0.796875 0
  0.828125   0.734375 0
  0.578125   0.812500 0
  0.671875   0.562500 0
  0.781250   0.562500 0
  0.656250   1.000000 0
  0.765625   0.796875 0
  0.656250   0.593750 0
  0.796875   0.562500 0
  0.625000   0.828125 0
  0.625000   0.625000 0
  0.859375   0.562500 0
  0.796875   1.000000 0
  0.890625   0.781250 0
  0.875000   0.781250 0
  0.625000   0.859375 0
  0.843750   0.781250 0
  0.859375   0.765625 0
  0.843750   0.765625 0
  0.859375   0.750000 0
  0.843750   0.750000 0
  0.765625   1.000000 0
  0.781250   0.984375 0
  0.875000   0.625000 0
  0.875000   0.812500 0
  0.640625   0.875000 0
  0.562500   0.906250 0
  0.796875   0.843750 0
  0.796875   0.828125 0
  0.656250   0.906250 0
  0.890625   0.640625 0
  0.875000   0.843750 0
  0.859375   0.843750 0
  0.625000   0.906250 0
  0.812500   0.875000 0
  0.859375   0.515625 0
  0.812500   0.843750 0
  0.796875   0.875000 0
  0.796875   0.859375 0
  0.593750   0.968750 0
  0.859375   0.875000 0
  0.625000   0.937500 0
  0.843750   0.875000 0
  0.593750   0.953125 0
  0.859375   0.859375 0
  0.828125   0.671875 0
  0.890625   0.765625 0
  0.656250   0.828125 0
  0.656250   0.625000 0
  0.890625   0.562500 0
  0.640625   0.843750 0
  0.640625   0.640625 0
  0.875000   0.578125 0
  0.890625   0.750000 0
  0.875000   0.765625 0
  0.562500   0.625000 0
  0.968750   0.500000 0
  0.734375   0.562500 0
  0.937500   0.578125 0
  0.703125   0.640625 0
  0.656250   0.984375 0
  0.640625   1.000000 0
  0.953125   0.578125 0
  0.671875   0.984375 0
  0.906250   0.921875 0
  0.921875   0.687500 0
  0.671875   0.765625 0
  0.687500   0.750000 0
  0.906250   0.484375 0
  0.984375   0.921875 0
  0.734375   1.000000 0
  1.000000   0.906250 0
  0.750000   0.984375 0
  0.828125   0.843750 0
  0.593750   0.906250 0
  0.828125   0.640625 0
  0.843750   0.828125 0
  0.609375   0.890625 0
  0.609375   0.687500 0
  0.843750   0.625000 0
  0.734375   0.875000 0
  0.968750   0.812500 0
  0.859375   0.812500 0
  0.625000   0.875000 0
  0.859375   0.609375 0
  0.843750   0.812500 0
  0.859375   0.796875 0
  0.828125   0.812500 0
  0.593750   0.875000 0
  0.828125   0.609375 0
  0.781250   0.843750 0
  0.515625   0.921875 0
  1.000000   0.781250 0
  0.765625   0.843750 0
  1.000000   0.578125 0
  0.765625   0.968750 0
  0.890625   0.703125 0
  0.656250   0.765625 0
  0.890625   0.500000 0
  0.875000   0.703125 0
  0.937500   0.937500 0
  0.984375   0.578125 0
  0.578125   0.531250 0
  0.875000   0.609375 0
  0.640625   0.671875 0
  0.796875   0.625000 0
  0.859375   0.593750 0
  0.625000   0.656250 0
  0.609375   0.671875 0
  0.593750   0.687500 0
  1.000000   0.562500 0
  0.765625   0.625000 0
  0.656250   0.578125 0
  0.625000   0.546875 0
  0.671875   0.812500 0
  0.906250   0.750000 0
  0.796875   0.546875 0
  0.828125   0.718750 0
  0.578125   0.781250 0
  0.875000   0.656250 0
  0.640625   0.718750 0
  0.734375   0.984375 0
  0.968750   0.921875 0
  0.609375   0.531250 0
  0.953125   0.921875 0
  0.968750   0.937500 0
  0.593750   0.546875 0
  0.765625   0.609375 0
  0.531250   0.671875 0
  0.781250   0.593750 0
  0.546875   0.656250 0
  0.656250   0.656250 0
  0.890625   0.593750 0
  0.656250   0.859375 0
  0.921875   0.671875 0
  0.968750   0.734375 0
  0.718750   0.812500 0
  0.812500   0.984375 0
  0.562500   0.796875 0
  0.750000   0.640625 0
  0.765625   0.687500 0
  0.531250   0.953125 0
  0.687500   0.656250 0
  0.921875   0.593750 0
  1.000000   0.593750 0
  0.750000   0.671875 0
  0.671875   0.750000 0
  0.906250   0.687500 0
  1.000000   0.656250 0
  0.812500   0.562500 0
  0.687500   0.796875 0
  0.921875   0.734375 0
  0.828125   0.546875 0
  1.000000   0.625000 0
  0.953125   0.968750 0
  0.750000   0.906250 0
  0.515625   0.968750 0
  0.812500   0.531250 0
  1.000000   0.796875 0
  0.515625   0.937500 0
  0.750000   0.875000 0
  0.812500   0.703125 0
  0.796875   0.703125 0
  0.812500   0.593750 0
  0.937500   0.562500 0
  0.656250   0.968750 0
  0.890625   0.906250 0
  0.703125   0.625000 0
  0.953125   0.546875 0
  0.671875   0.953125 0
  0.906250   0.890625 0
  0.984375   0.781250 0
  0.796875   0.687500 0
  0.562500   0.953125 0
  0.968750   0.875000 0
  0.718750   0.953125 0
  0.562500   0.937500 0
  0.781250   0.781250 0
  0.953125   0.875000 0
  0.718750   0.937500 0
  0.953125   0.671875 0
  0.796875   0.656250 0
  0.828125   1.000000 0
  0.953125   0.890625 0
  0.703125   0.968750 0
  0.828125   0.625000 0
  0.781250   0.968750 0
  0.781250   0.671875 0
  0.781250   0.875000 0
  0.546875   0.937500 0
  0.906250   0.640625 0
  0.671875   0.703125 0
  0.640625   0.609375 0
  0.875000   0.546875 0
  0.906250   0.625000 0
  0.656250   0.703125 0
  0.656250   0.718750 0
  0.968750   0.531250 0
  0.734375   0.593750 0
  0.984375   0.531250 0
  0.781250   0.546875 0
  0.718750   0.609375 0
  0.906250   0.703125 0
  0.968750   0.593750 0
  0.687500   1.000000 0
  0.921875   0.937500 0
  0.906250   0.765625 0
  0.906250   0.562500 0
  0.718750   0.750000 0
  0.718750   0.546875 0
  0.953125   0.484375 0
  0.796875   0.593750 0
  0.515625   1.000000 0
  0.750000   0.937500 0
  0.906250   0.593750 0
  0.546875   1.000000 0
  0.781250   0.937500 0
  0.828125   0.593750 0
  0.984375   0.609375 0
  0.937500   0.953125 0
  0.796875   0.515625 0
  0.968750   0.609375 0
  0.734375   0.671875 0
  0.906250   0.781250 0
  0.671875   0.843750 0
  0.515625   0.890625 0
  0.687500   0.625000 0
  0.921875   0.562500 0
  0.843750   0.531250 0
  1.000000   0.765625 0
  0.750000   0.843750 0
  0.812500   0.671875 0
  0.687500   0.921875 0
  0.765625   0.515625 0
  0.953125   0.609375 0
  0.921875   0.625000 0
  0.687500   0.687500 0
  0.812500   0.656250 0
  0.812500   0.859375 0
  0.578125   0.921875 0
  0.796875   0.765625 0
  0.890625   0.687500 0
  0.578125   0.750000 0
  0.812500   0.687500 0
  0.578125   0.953125 0
  0.796875   0.796875 0
  0.984375   0.890625 0
  0.734375   0.968750 0
  0.718750   0.640625 0
  0.968750   0.562500 0
  0.687500   0.968750 0
  0.921875   0.906250 0
  0.765625   0.953125 0
  0.812500   0.609375 0
  0.812500   0.734375 0
  0.875000   0.562500 0
  0.968750   0.656250 0
  0.796875   0.734375 0
  0.812500   0.828125 0
  0.578125   0.890625 0
  0.781250   0.687500 0
  0.984375   0.671875 0
  0.578125   0.828125 0
  0.812500   0.765625 0
  0.875000   0.593750 0
  1.000000   0.875000 0
  0.765625   0.937500 0
  0.843750   0.656250 0
  0.843750   0.859375 0
  0.609375   0.921875 0
  0.828125   0.687500 0
  0.937500   0.656250 0
  0.937500   0.859375 0
  0.703125   0.921875 0
  0.984375   0.640625 0
  0.890625   0.468750 0
  0.656250   0.734375 0
  0.890625   0.671875 0
  0.890625   0.875000 0
  0.656250   0.937500 0
  0.578125   0.859375 0
  0.812500   0.796875 0
  0.843750   0.890625 0
  0.609375   0.953125 0
  0.937500   0.875000 0
  0.687500   0.953125 0
  0.843750   0.953125 0
  0.828125   0.703125 0
  0.593750   0.765625 0
  0.937500   0.546875 0
  0.781250   0.531250 0
  0.781250   0.734375 0
  0.546875   0.796875 0
  0.796875   0.718750 0
  0.562500   0.984375 0
  0.984375   0.812500 0
  0.562500   0.812500 0
  0.796875   0.750000 0
  0.562500   0.875000 0
  0.796875   0.812500 0
  0.640625   0.750000 0
  0.875000   0.687500 0
  0.703125   0.671875 0
  0.937500   0.609375 0
  0.562500   0.843750 0
  0.796875   0.781250 0
  0.781250   0.750000 0
  0.781250   0.609375 0
  0.812500   0.953125 0
  0.812500   0.718750 0
  0.953125   0.593750 0
  0.718750   0.656250 0
  0.671875   1.000000 0
  0.796875   0.953125 0
  0.843750   0.609375 0
  0.812500   0.812500 0
  0.812500   0.781250 0
  0.750000   0.953125 0
  0.750000   0.750000 0
  0.984375   0.687500 0
  0.781250   1.000000 0
  0.765625   0.546875 0
  0.765625   0.750000 0
[...]
POINT_DATA 4072
SCALARS scalar_value float 1
LOOKUP_TABLE default
0.000342559
0.000280537
0.00706781
1.47327e-05
5.78579e-07
0.000271861
0.00039689
0.0534709
1.18474e-05
-2.94431e-06
2.88438e-06
0.00148982
1.68832e-06
0.0026999
5.38475e-08
-1.47115e-07
-1.36683e-07
2.41676e-07
-3.93776e-07
-2.41498e-06
-2.54301e-06
-1.47825e-05
4.21236e-05
1.82384e-05
0.00396162
0.00264404
-7.03792e-07
0.000256794
0.000313574
0.016701
0.000283548
-1.45745e-06
-1.44292e-06
8.18348e-07
0.00202857
2.53807e-05
0.000168981
-0.000147993
1.65445
4.16318e-07
0.00172665
-2.55117e-07
0.00427354
1.35024e-05
2.41539e-06
0.00212046
-2.80084e-06
0.000136577
-7.26196e-05
0.410047
0.000217795
3.71076e-07
1.50612
2.84678e-05
0.0444663
0.000817255
7.56713e-05
7.10083e-05
6.59616e-06
0.0032669
-0.000351217
0.00547665
2.25096e-05
0.016418
7.55687e-05
0.000836756
0.00461523
7.91897e-07
1.24855e-06
0.000237017
-8.06773e-05
0.00029064
1.1738e-06
0.000300789
1.02133e-06
0.0127418
0.00445613
0.0010126
0.0381242
0.00618141
0.00552135
0.00370976
0.0400592
0.00286663
0.0557412
0.0335759
-0.000243879
9.37347e-05
0
0.0151151
0.000304941
0.0190119
0.447685
0.0484995
0
0.00701389
0.351279
0.0124705
0.0121458
0.352259
-7.72223e-05
0
-8.53549e-05
-0.000120515
0.00792675
-8.99194e-05
-0.000191153
-0.00012476
-0.000241229
-0.000176129
0
5.2474e-05
-0.000216165
-8.05453e-05
0.0063373
0.00394486
0.00176824
0.00205775
0.0042283
-5.05134e-06
-7.83418e-05
-6.64174e-05
0.0039451
0.00122479
0.00010669
0.000849651
0.001485
0.00160438
0.000539045
-2.85593e-05
0.00221111
9.07593e-05
0.000948622
-4.97735e-05
-0.000110238
-8.80178e-05
0.0126027
0.175845
0.000360761
0.00995857
0.208194
8.15986e-05
-8.81499e-05
-0.000149554
0.377349
-4.47348e-06
0.205528
4.48448e-05
0.0544742
0.000406944
0
7.24539e-06
0.000473334
-1.19926e-05
2.76314e-05
0.0222196
0.0195443
0.000146327
2.82572e-07
0
8.72295e-08
7.96085e-05
0.000319848
0.00288595
-0.000601702
-3.13368e-05
0.0052614
0.0526776
-0.000963392
0.00134459
2.29553e-06
-9.37036e-05
0.00635697
-0.000512153
-5.50072e-05
-0.000114793
0.00025085
0.00497394
-0.00124061
0.00373273
0.00252265
2.85219e-08
0.00346194
-1.21587e-06
0.00021127
-7.25263e-05
0.0263359
0.000395185
-0.000241037
-1.39097e-06
-1.58919e-06
1.53308
-0.000166082
0.1101
0.0126208
-0.000419777
0.153206
0.103278
0.0369371
-1.18082e-06
0.0563023
0.524925
1.26522
0.0137018
-4.29342e-06
0.0122346
0.000265112
0.0316113
-0.000256538
0.053526
3.36336e-05
7.95845e-07
1.3828
2.29933e-07
5.916e-07
1.30531
0.0662934
0.104203
0.0405344
0.175217
0.101855
0.000120399
0.00847484
3.26317e-05
2.07124e-06
0.00039367
7.07186e-05
0.0331931
0.0567955
0.0280258
0.00186069
0.0629786
6.17634e-05
-1.23254e-06
0.036079
0.025521
3.79236e-05
-9.9184e-07
-0.000868662
0.0109954
1.21739e-05
-0.00220598
-1.17998e-06
1.37362e-07
0.00134146
0.000777467
-0.00217128
7.53346e-08
0.0018798
0.0019538
0.00263969
0.00865009
0.000729443
8.64702e-05
0.00092474
-2.65284e-05
0.0832182
1.58234e-05
0.00164485
-2.48015e-05
7.22666e-07
0.00965955
0.000786507
1.42536e-06
6.59558e-05
0.00148942
0.00762405
-1.63542e-06
0.000106919
3.81469e-06
0.0114405
0
-4.55552e-07
0.000281481
-0.000910188
0.000137023
0.0229338
0.00205403
0.00242479
8.10515e-05
0.0383122
0.405501
0.000415341
9.78519e-05
0.0557927
0.0463525
-2.99165e-06
0.123346
-1.81097e-06
0.0526317
0.0955267
2.58249e-05
-2.56762e-06
0
-3.05902e-06
-1.28243e-05
0.000253131
0.00197709
0.339165
5.69118e-07
0.0129129
0
0.000928754
0.000138467
0
0.000602925
-0.00156324
-1.29516e-06
-9.04484e-07
0.0122639
-2.03877e-06
0.0279276
-2.08929e-05
0.00935829
0.00383647
0.127319
0.000135444
-0.000629802
-4.18953e-08
0.0025365
0.00278696
0.00176637
0.149239
2.93183e-06
4.69298e-05
0.0379256
0.00268209
0.000938358
0.00146637
0.00464855
-6.14379e-05
0.0536046
0.00276561
0.00037874
0.0030816
4.72714e-07
9.87913e-05
0.0432917
-2.98784e-06
0.000753591
-6.83303e-06
0.000420774
0.0014452
0.0021669
0.000404623
-2.81567e-07
0.00657888
0.000853057
0.00372506
0.0199997
-5.70109e-07
0.014413
0.00157104
-7.82153e-05
1.05909e-07
0.0007538
-0.000762642
4.27448e-05
0.00323239
6.22588e-05
1.47097e-05
-1.48146e-05
0.000349958
-9.67316e-07
0.000250458
0.0386978
-4.68911e-05
-6.19737e-05
0.00231155
0.00777105
0.00107752
0.000125286
0.00165689
-1.48296e-05
0.00110089
5.98669e-05
0.000186168
0.0236293
8.09644e-05
0.0568406
0.0126769
0.0321553
0.00761197
9.82966e-05
8.3165e-07
0.0260683
0.00558156
0.00833494
0.00249455
0.0379903
-0.000253116
0.0247042
2.16146e-05
0.015405
0.00380677
0.0107459
0.0367094
0.000344906
0.00243203
4.10497e-06
0.0283042
0
0.000341963
-0.00101745
0.00092785
0.00129784
0.000468727
0.0113788
-3.57479e-07
0
0.119024
0.0130476
0.0191554
6.55317e-05
0.00309276
0.0202158
0.00187048
0.0044993
0.00740711
-1.06917e-06
0.0776453
0.0053733
-0.000872495
6.69018e-05
-3.57706e-06
2.74351e-06
0.0116349
0.000271673
0
0.00066267
-1.78948e-06
0.0881806
0.000277955
0.036699
0.0135474
-1.80005e-06
0.133493
0.225657
0.0143617
0.0071305
0.000169107
0.0402547
0.0227901
0.0122246
1.48308e-05
0.019151
7.94444e-05
-0.000458037
0.000209257
0
-0.000538438
0.0665152
0.0280582
-2.04385e-06
2.44259e-07
0
0.000556878
4.60289e-06
3.56167e-05
-0.000243732
0.367831
-8.5667e-05
0.0181924
0.000174589
-0.000552804
0.042808
6.35294e-08
5.25985e-05
4.4227e-06
6.41354e-05
3.31631e-05
0
-2.83764e-05
1.09285e-05
7.21057e-07
4.89989e-06
3.91093e-07
0
0
7.29512e-07
0.00243126
1.3845e-05
8.8834e-05
0.823168
-2.93229e-07
1.80794e-05
0
1.02499
0.00102532
1.69371e-06
0
0
-0.000332374
4.84724e-06
0.0698994
-0.000202241
-8.05143e-05
0.0441692
5.116e-05
0.0320801
-0.00055759
0.0340774
-0.000503415
0.0243863
0.0180983
-7.76102e-07
1.18484e-07
0
-0.00158051
0.686468
0
0.915023
8.69738e-08
0.000429576
0.772156
2.91771e-08
7.49848e-05
0.687978
3.95039e-08
0.562058
1.36968e-08
6.10553e-08
1.02836
4.53616e-08
0.000333401
-6.54176e-06
1.42285
-3.44152e-06
0.000381998
0.0291207
6.93067e-08
-0.00234542
0.812516
2.55012e-07
-0.000607069
0.888939
1.05255
1.42584e-07
-0.000423592
0.0281529
-0.000406281
2.29995e-05
0.000933545
0.0196006
-0.00032694
0.000460025
0.0186348
-0.000295409
0
-8.55883e-07
0.0158956
0.0237047
-0.000223772
0.000364226
0.0148638
0.0233115
0.0152768
-0.000177232
-0.00249967
0.0121427
0.633749
-0.00263025
1.02069
0.0128855
0.164654
-7.07116e-05
0.213038
0.290566
0.205916
0.000282844
0
0
-8.06295e-05
-4.45956e-05
-2.70927e-05
-3.19249e-05
-1.71867e-06
5.78842e-07
0.00328652
-7.89508e-06
-4.60944e-06
-8.26745e-06
-5.35523e-06
-3.06746e-06
0.000130164
0.000947025
0.000448079
0.000799887
0.000226374
0.00037621
1.16001e-07
1.12853e-07
0.00110494
6.6792e-07
-5.38709e-07
-2.44724e-07
-1.30565e-06
-2.02763e-06
0
0
2.70788e-06
9.72825e-08
8.23044e-05
7.52024e-08
0
2.07183e-07
0.0014663
0.000497056
0.000423389
0.00109232
0.000493486
1.13112e-07
7.39459e-07
2.00446e-07
5.27298e-05
0.00118912
-9.86052e-07
0.000313194
4.1145e-06
3.26768e-06
-4.19847e-05
0.00142875
-2.08881e-05
-1.1214e-05
-1.70028e-05
0.000271529
-2.22571e-06
1.91991e-06
-1.97237e-06
0.000467567
0.00819461
2.74675e-07
-1.35227e-05
-4.00998e-05
4.16621e-06
0.00543169
0.0674536
2.46857e-05
2.77991e-06
1.52114e-06
-1.13864e-06
-4.94125e-07
0.00303274
0.000300356
1.4848e-06
-1.2535e-06
0.00053631
-1.47068e-05
-4.54395e-06
0.0129139
0.00640247
4.48193e-06
0.00242112
4.75639e-06
0.00904026
-0.000646142
3.96301e-05
-2.12013e-06
0.000171304
0.00428311
8.59757e-06
0
-4.00079e-06
-1.79879e-05
0.00408554
0.0025938
0.00421536
-1.12968e-05
-1.69951e-05
-6.19893e-06
-1.21649e-05
0
-0.000804523
0.536088
-0.000699297
0.0138229
1.77253e-05
-5.46285e-07
0.0106636
0.0133643
0.00867376
0.0207152
0.0090655
0.0090246
0.00562528
0.00694024
1.54666e-06
-4.46557e-06
2.3327e-06
0.00137186
-3.39613e-05
3.74508e-05
0.0267276
1.02367
0
0.078876
0.0405198
0.00779239
0.00458636
0.00535522
0.000556375
0.110328
0
0.138861
0.0163022
0.0110895
0.000234355
0.0374125
0.00210589
0.000433289
0.216354
-0.00891167
5.04895e-08
0.107717
0.000410838
0.000480448
-2.3438e-08
0.160674
0.0700445
-1.47373e-05
0.0173065
0.0475529
0.150159
-5.93135e-06
-9.68497e-07
0.971706
0.0332518
0.0274731
0.000533915
0.0476971
0.00685344
0.0220109
0.00318917
0.000372718
0.0438418
0.0106725
0.299809
0.026495
0.000373905
-0.00132222
0.00060185
7.97368e-05
-1.767e-05
0.000250283
0.16151
-0.00478545
0.349633
6.00002e-08
-0.0101907
-5.12913e-05
0.00219115
0.00525602
0.00118021
0.0458836
0.009086
0.167147
-0.00165877
0.0117622
0.00153227
6.90163e-06
-0.0133053
0.000378931
-1.68168e-08
0.224846
-0.00744656
0.337371
-8.95699e-08
-0.0155432
-1.34076e-05
0.00307137
0.116404
0.000246258
0.000441609
0.0573981
6.66561e-06
2.02986
0.103211
8.30077e-05
1.8416e-08
-3.93529e-06
0.143045
5.88154e-06
0.000549666
0.0149391
0.0112323
0.0189447
0.00190761
0.00410535
0.204396
0.0240171
-1.34379e-06
0.0449544
0.0386341
0.0196305
0.0103843
0.00179477
0.00763074
0.00307557
0.0246654
0.00550995
0.0123216
0.00458815
0.000164752
0.000459501
0.726485
0.482474
0.000124872
0.00113342
0.359139
-0.000282511
0.297634
0.000391072
0.000712591
-4.11082e-07
0.262858
0.129726
0.000296507
-0.0030516
0.146738
0
-0.00179281
0.230356
0.0308683
0.022911
-1.51525e-05
-2.94119e-06
0.000288479
0.0044143
0.000218086
-5.48554e-07
0.41814
0.28393
0.0933904
0.0202642
0.0153634
0.00941949
0.00982536
0.00196333
0.353883
0.382261
0.0649777
0.0169409
0.0518133
0.00286331
0.127198
0.0694861
0.000159338
0.965129
0.51068
0.0068359
0.000682345
0.00038317
0.522398
0.261839
0.00193163
0.00383137
0.00139969
0.00798223
0.000282844
0.480854
0.33698
0.00496294
-7.98238e-05
-1.15824e-05
0.00040549
0.142547
0
0.07543
0.00312559
0.00238093
0.897088
-1.8683e-06
0.00350856
-0.000850913
4.74239e-06
0.0220611
0.00579228
0.00118761
0.00128345
0.00548154
0.000156428
0.238018
0.0635591
0.0150192
0.0029586
0.0123491
0.000740263
-2.46015e-06
0.0126937
0.0106781
0.0083969
9.98689e-05
0.0052863
0.000900861
0.178149
-0.00230327
-0.000283229
0.0151783
0.0040633
0.0113817
0.00614451
0.147089
0.0231917
0.122969
0.0214714
1.66907e-06
0.000895155
0.131237
0.12527
0.00792646
0.367635
0.312924
-1.1763e-06
-8.01781e-07
0.00224473
0.00275084
0.016574
0.283128
0.0303376
0.00356599
0.00365645
-1.29008e-06
0.164696
-0.00381166
0.00015118
0.0089879
0.0506726
0.00118702
0.158127
0.020913
3.28766e-05
0.00204083
0.00611817
0.00184306
0.00121935
-0.00139479
1.92786e-06
0.00244798
0.00345772
0.015978
0.00268439
0.394303
0.0422388
0.000852227
0.00418168
-4.99464e-07
0.186864
1.11104
9.93031e-05
0.266488
-7.0918e-09
1.72569
8.88473e-05
0.313452
0.000746469
0
-0.00852031
1.31054
0.556335
0.0241774
1.70206
-7.71085e-07
2.634
2.53713
0.840797
4.70842e-05
0.390325
0.035973
2.42812
0.0289366
7.01065e-07
-0.0048268
1.26048e-06
1.25674
0.66042
0.321617
0.476156
0.406914
6.65188e-05
-0.0216992
1.33382
-0.0270948
-3.6167e-08
0.000503108
1.62516
0.00384735
0.986078
0.299626
0.244333
-1.33469e-06
3.68648e-06
0.00833323
0.189589
1.13846
1.06086e-05
0.000374987
0.104261
-8.92731e-07
2.22101
9.95045e-06
0.354197
1.04295
-0.00204063
1.13271
0.0072678
2.40156
1.2616
1.62941
1.50197
-0.0339245
-0.00361011
-3.6396e-07
1.67496
-2.91524e-05
0.884403
-3.97828e-07
8.15711e-07
0.0186294
2.51649
-0.000303605
-0.00302375
0.28229
-8.3225e-09
-0.0269564
1.05083
1.62275
-0.0113389
3.52765e-05
0.208636
-0.000896915
0.262085
0
-3.85031e-07
-2.73769e-06
0.00107079
5.96976e-08
-0.0028839
0.708269
0.000247103
0.195734
0
1.85294
1.63621e-06
-1.46981e-05
-1.18183e-05
0.762008
1.66479
-9.46438e-06
-3.8998e-06
-2.2782e-06
-0.0117044
2.44599
-0.00488828
2.47531
4.89776e-06
-0.0138491
2.36591
5.50894e-05
9.04044e-05
-0.0150051
2.48076
2.62184
-0.0145858
-9.93171e-07
-1.09566e-06
0.0222671
0.0949137
4.75594e-06
0.131344
2.64787
1.51764
-1.66758e-05
0.892074
0.000149683
0.000582917
0.000147848
-0.0100461
2.18559
2.05786
0.00081639
0.412167
-1.57818e-07
2.92388
1.24146e-06
1.04379e-06
1.98725
0.00799742
0.0542544
-1.82648e-07
1.45805e-06
-4.00462e-07
1.14037
-0.0140839
-0.00244135
1.22218
-0.00758478
0.000197162
0.000618599
0.659967
-4.05007e-07
-0.00507649
3.06857e-05
0.012784
0.0754832
1.06223
0.0128446
-0.00174874
4.88932e-06
1.11841
0.000340243
3.42413e-06
0.091045
2.55274
7.47646e-07
6.41354e-07
-0.0109677
-3.89337e-07
-3.74344e-07
0.00191047
0.755508
0.000498606
-0.0205264
1.03891
1.89602
0.196002
0.597788
-0.000273148
2.21297
1.48575
0.000227935
0.000248919
1.26329e-06
-4.01427e-07
-0.00764698
-2.83288e-09
0.0251993
0.222369
4.83462e-07
0.0387017
-5.76882e-07
0.0195408
0.439095
-4.12835e-07
-0.00587063
0.000138883
1.37203
2.42279
-2.96494e-05
2.07513
8.79612e-05
0.130913
1.60516e-07
0.000294583
-0.0010797
0.16059
6.04332e-07
0.000330238
7.99874e-05
1.8126
2.03171
0.000280504
2.07139
1.72046
0.000114661
4.572e-06
0.482242
0.268746
0.0014505
7.03495e-07
0.0319114
-0.00288776
0.488464
6.27976e-08
0.44684
2.28557
-2.31771e-05
1.28078e-06
0.356506
9.47863e-07
0.416474
0
0.291718
0.00138441
0.000416484
-3.93502e-07
0.0411762
4.4591e-07
2.08527
-5.73845e-05
-0.00426487
-3.92552e-07
2.57693
0.719596
0.000697569
-0.00100606
0.909503
0.000212857
0.00289892
-1.60905e-05
0.0815167
-5.20565e-06
2.3746
2.25547
-0.00431204
0.0035956
-1.28537e-05
0.16229
8.85953e-05
0.0173852
1.32879
-0.0113601
1.34934
-7.69899e-08
-0.0139856
1.56545
2.8561
-0.0335896
1.17221
3.11089e-09
0.131145
0.680247
1.62666
0.859748
0.186703
1.93551e-05
4.38486e-05
0.766892
-0.00409833
0.310208
-0.00298621
1.47468
-0.0229636
-0.00172728
-0.00361072
0.354887
-0.00202354
2.38538
1.6615
7.92281e-05
1.88317
0.000296818
-8.3319e-05
0.366693
0.000670764
1.90525
0.00069391
0.548416
1.82689
1.1495
0.073503
0.000366479
9.41243e-05
0.557964
0.000442437
0.707321
0.642295
-0.00280938
-0.00343347
0.000161317
-3.40672e-05
-1.20382e-05
1.9924
1.26732
0.013422
0.000708764
0.000154724
1.43412
2.07567
-5.11621e-06
0.348294
-4.02336e-07
1.19824
1.22508
0.187624
0.0342753
2.16317
0.117477
5.01629e-06
5.02911e-06
-3.17999e-07
-4.08398e-07
0.0340102
1.47866
9.4721e-05
0.406465
1.9455
-2.48435e-05
0.000178889
0.00017381
0.0821338
0.0249912
1.94724
0.307651
8.34128e-07
7.64437e-05
1.58577e-07
5.90957e-05
-0.0322244
-0.000412395
0.67103
1.90525e-05
0.946712
-0.0112087
2.80938
1.94708
0.0923143
-8.79294e-07
0.19257
0.00284866
-7.59512e-05
6.54247e-06
0.216801
2.37096e-05
1.04362
0.000691792
-0.00118156
0.0410089
0.27556
1.13035e-06
1.02825e-05
0.188112
-2.97753e-08
1.33467
0.000727194
0.00847659
2.02505
0.0706405
5.56428e-07
-0.0495849
-9.50947e-07
2.69406
1.68337
5.40812e-07
2.2662
0.0991489
-0.00133138
1.25605
-0.00137097
-0.00523696
2.15439
-0.000970683
-0.00184306
-0.00390446
0.760993
-0.00531148
-0.000383013
-3.27366e-05
0.651828
-0.00639638
0.691941
-0.00576694
2.4086
0.0133896
1.41894e-06
2.12551
0.225345
-8.81458e-07
6.02894e-07
-0.044529
2.50916
-5.3198e-06
0.888141
0.000704592
2.58631
0.0112534
0.1674
0
-0.00590868
-0.000137086
1.04097
-0.00520789
-7.08607e-05
0.285543
2.9082
-0.0222973
-0.0107672
1.16633
2.00679
-0.00379587
0.000213552
0.0231168
-0.00784919
1.05344
-0.0192854
2.47566
-0.0278603
0.000110057
0.000125599
-0.0332632
1.40181e-05
-0.0204068
2.40887
-0.0173808
-0.000151734
-0.0211782
1.2984
1.71542
-0.00112439
-0.0027072
-0.00168245
0.000321986
4.32132e-06
-2.13217e-07
0.301675
2.90899e-06
0
-3.37448e-05
-2.94818e-07
1.78801
1.0518
4.63356e-06
-9.74758e-07
1.76393
0.0133253
1.62263e-05
2.39445
1.16941
0.0941904
1.30223
0.105476
-1.07114e-06
1.21542
0.000213349
0.104161
-0.000728049
0.908711
2.29538
0.000327725
0.255758
0.0140658
1.67647
2.37177
-0.00196728
0.198805
-1.23955e-06
0.531478
0.127669
0.230971
2.58792
-8.9868e-06
1.45081
-0.00110171
-0.0114719
-0.00362698
-0.00209322
1.57503
8.83396e-05
1.96121
0.824352
-2.85871e-07
-0.00435505
-0.00628747
2.80062
0.00138932
-7.40139e-08
2.09263
0.000229731
-2.20793e-07
2.50067
0.516388
-0.00204882
0.0921226
2.45988
3.92923e-06
0.41311
0.00155777
2.09854e-05
-1.80105e-07
0.0565603
-0.000490226
1.90451
-0.00292375
-3.31928e-07
2.49191
1.68402
2.37071
0.0937855
4.70289e-06
-0.000235653
2.38155
-0.00835989
-0.00762668
-0.000222396
0.829705
0.000394678
0.400425
2.15384
-0.00247616
-2.32658e-07
1.79233
-3.41628e-08
-0.0257287
0.310977
-5.32347e-07
0.000110542
1.7812
1.4568
0.0291092
0.0145334
0.315704
9.21677e-08
1.82168e-05
2.46537
0.0157386
0.733848
1.65109e-07
-1.13343e-06
0.0143639
0.0853483
-0.00687479
-0.0127395
2.11309
0.929062
-0.0171709
-0.000230552
0.12656
-0.00291454
-0.0064099
2.92824
1.99613
-2.42909e-06
0.000270824
0.100247
-0.00944601
1.65083
0.000403633
0.787631
-1.08554e-05
-0.0144604
-0.000622146
0.943054
0.000645156
1.73741
0.00315352
-3.76166e-07
-0.0329901
-1.83848e-05
0.937252
2.00719
0.0199252
8.46153e-07
2.50284
2.39505
2.1239e-05
0.0554854
0.00166128
4.03554e-08
0.00960274
-0.00992912
0.000138159
1.75989
0.269762
-3.65038e-07
0.00301631
4.11867e-07
1.66519e-06
1.73747
-3.21717e-05
1.12307
2.3387
-0.00704046
-1.35277e-06
-0.0267219
-9.58655e-07
0.697456
1.57736
9.39068e-06
0.000217768
-1.57125e-05
0.059487
5.94223e-05
-1.21779e-05
-1.30916e-06
0.26823
-1.49116e-06
2.24941
-0.0164287
1.19174
-2.79958e-05
5.89077e-07
-0.00532346
0.249093
-6.01174e-07
-3.51019e-05
8.74062e-06
0.818882
-0.000563281
2.45427
2.33455
4.74914e-07
0.000123382
-9.37539e-07
2.12032
-3.41763e-05
2.64239
-0.00562275
-0.00105623
0.759078
0.000292246
0.746045
2.43326
1.46669e-06
1.07283
-0.0135398
0.000493689
0.806381
0.652935
-3.8887e-05
0.00846223
1.33044e-05
1.02622
-0.0165319
2.40314
-0.0191295
0.000364354
-0.000178446
-3.87244e-07
0.000134634
0.0748324
5.02521e-07
4.49972e-06
-7.01698e-06
-8.79109e-06
-0.0225534
-0.00493601
0.315207
-3.68677e-07
1.38867
-0.00236545
-0.00405937
0.37913
0
0.743681
-0.00947881
2.72278
2.51438
0.409664
0.00666631
1.95166
0.780451
-0.00371463
0.179792
-2.35202e-09
0.000119033
-5.00238e-05
1.74146e-06
0.726037
-0.0241046
-0.00433687
0.418447
2.24349
-0.0116
-0.00119975
0.000714686
0.501452
-0.000939203
2.45375
-2.44389e-06
2.23472
-8.52196e-05
3.05302e-06
-1.2216e-06
0.0178575
0.0874018
2.43912
0.784387
0.251493
1.25247
-2.83937e-06
8.53435e-08
0.378485
0.0754744
0.473721
2.55338
-4.25409e-05
0.93272
1.43991
-0.00391037
0.12059
-7.16079e-06
0.000247779
2.60516
2.15151
0.302839
0.000575611
2.50197
-0.00157881
-1.25148e-07
1.49851
2.51013
-0.00998495
-0.0118334
0.771268
-9.88309e-07
-5.69113e-05
3.43513e-06
0.0411057
4.06646e-06
-1.13387e-06
0.132821
-0.00466842
1.43926
0.283093
-1.86889e-06
0.860243
2.86722
-0.00833405
-0.00208388
1.57729
-0.00296754
2.07073
-0.0214206
0.473743
1.98468
2.25001
-0.00796944
2.46316
-0.00164785
0.000182488
-5.10753e-05
0.873004
2.45317
-0.000602932
0.737563
-0.00215624
-0.000100577
1.47866
-0.00317361
0.0189957
6.42772e-08
-0.00945903
3.06273
2.37539
0.0605885
-7.30808e-08
0.00791255
-1.10934e-06
0.477985
-2.986e-05
5.14909e-07
-1.06942e-06
-4.47591e-06
-7.01673e-07
0.224658
0.566573
0.437075
0.727438
-3.65245e-07
0.00988783
0.197489
-9.74435e-06
1.36941
-6.51086e-06
1.86073
-0.0468779
1.16073
1.25591e-06
1.65461e-06
0.00271226
2.14779
0.907023
0.000121264
0.257132
-3.14213e-06
0.311277
-3.87991e-06
2.18437
-2.09021e-05
0.205575
-0.000297534
2.3158
1.57111
0.000687579
-3.17709e-07
0.0134299
-1.66156e-07
0.228595
0.168071
0.28864
-4.1183e-07
1.2824
-8.27348e-05
1.73244
1.69657
-0.00362425
0.427886
-6.46112e-07
0.0395314
3.70778e-06
0.0686953
0.0119013
0.766782
2.63837
0.218313
0.455645
0.410417
-2.21282e-05
0.192729
-1.47815e-06
2.18386
2.39642e-07
2.33165
1.51389
1.74414
-0.00108034
0.385918
-0.0168161
-3.92157e-05
3.92856e-08
0.531975
3.09738e-05
1.50464
0.690964
-1.08685e-06
0.0940996
1.07294
-7.49194e-06
-7.63111e-05
-8.72005e-05
2.45726
-7.18237e-06
-3.76393e-07
-0.0477164
2.63401
1.77871
-0.00279491
-0.00206322
0.0325749
0.250037
-4.01399e-06
-6.36089e-06
-0.00975077
2.23373
0.0173187
-0.00335746
0.0502917
-2.71038e-05
1.2459
1.02595e-06
1.3459
-0.00976669
-0.0124859
-0.0114299
1.47959
-0.00766406
-0.00145351
0.224154
1.30029
-0.0263061
-0.0180222
0.00165723
1.96411
0.133079
-4.44334e-07
-8.89221e-07
2.47155
3.54856e-06
-5.81375e-06
8.22855e-07
0.053217
0.93986
1.68427
-2.99045e-07
0.176143
2.58801e-07
0.00497632
-0.00547614
2.66811
1.92186
-0.00990022
2.92053
2.20629
0.032858
2.44966
1.08587
4.76179e-07
-0.00238171