# vtk DataFile Version 2.0
Unstructured Grid by M++
ASCII
DATASET UNSTRUCTURED_GRID
POINTS 4072 float
  0.875000   1.000000 0
  0.875000   0.984375 0
  0.875000   0.968750 0
  0.875000   0.953125 0
  0.875000   0.937500 0
  0.875000   0.921875 0
  0.875000   0.906250 0
  0.875000   0.890625 0
  0.875000   0.875000 0
  0.875000   0.859375 0
  0.875000   0.843750 0
  0.875000   0.828125 0
  0.875000   0.812500 0
  0.875000   0.796875 0
  0.875000   0.781250 0
  0.875000   0.765625 0
  0.859375   1.000000 0
  0.859375   0.984375 0
  0.859375   0.968750 0
  0.859375   0.953125 0
  0.859375   0.937500 0
  0.859375   0.921875 0
  0.859375   0.890625 0
  0.859375   0.875000 0
  0.859375   0.859375 0
  0.859375   0.843750 0
  0.859375   0.828125 0
  0.859375   0.812500 0
  0.859375   0.796875 0
  0.859375   0.781250 0
  0.859375   0.765625 0
  0.859375   0.671875 0
  0.859375   0.656250 0
  0.859375   0.640625 0
  0.843750   1.000000 0
  0.843750   0.984375 0
  0.843750   0.968750 0
  0.843750   0.953125 0
  0.843750   0.937500 0
  0.843750   0.921875 0
  0.843750   0.906250 0
  0.843750   0.875000 0
  0.843750   0.859375 0
  0.843750   0.843750 0
  0.843750   0.828125 0
  0.843750   0.812500 0
  0.843750   0.796875 0
  0.843750   0.781250 0
  0.843750   0.765625 0
  0.843750   0.671875 0
  0.843750   0.656250 0
  0.843750   0.640625 0
  0.828125   1.000000 0
  0.828125   0.984375 0
  0.828125   0.968750 0
  0.828125   0.953125 0
  0.828125   0.937500 0
  0.828125   0.921875 0
  0.875000   0.671875 0
  0.812500   0.921875 0
  0.890625   0.656250 0
  0.828125   0.906250 0
  0.875000   0.656250 0
  0.812500   0.906250 0
  0.890625   0.640625 0
  0.828125   0.890625 0
  0.875000   0.640625 0
  0.812500   0.890625 0
  0.890625   0.625000 0
  0.828125   0.875000 0
  0.890625   0.609375 0
  0.828125   0.859375 0
  0.890625   0.593750 0
  0.828125   0.843750 0
  0.890625   0.578125 0
  0.828125   0.828125 0
  0.890625   0.562500 0
  0.828125   0.812500 0
  0.828125   0.796875 0
  0.828125   0.781250 0
  0.828125   0.765625 0
  0.828125   0.671875 0
  0.828125   0.656250 0
  0.828125   0.640625 0
  0.875000   0.750000 0
  0.812500   1.000000 0
  0.875000   0.625000 0
  0.812500   0.875000 0
  0.875000   0.734375 0
  0.812500   0.984375 0
  0.875000   0.718750 0
  0.812500   0.968750 0
  0.875000   0.703125 0
  0.812500   0.953125 0
  0.875000   0.687500 0
  0.812500   0.937500 0
  0.875000   0.609375 0
  0.812500   0.859375 0
  0.875000   0.593750 0
  0.812500   0.843750 0
  0.875000   0.578125 0
  0.812500   0.828125 0
  0.812500   0.812500 0
  0.875000   0.546875 0
  0.812500   0.796875 0
  0.812500   0.781250 0
  0.812500   0.765625 0
  0.859375   0.750000 0
  0.796875   1.000000 0
  0.859375   0.625000 0
  0.796875   0.875000 0
  0.859375   0.734375 0
  0.796875   0.984375 0
  0.859375   0.718750 0
  0.796875   0.968750 0
  0.859375   0.703125 0
  0.796875   0.953125 0
  0.859375   0.687500 0
  0.796875   0.937500 0
  0.859375   0.609375 0
  0.796875   0.859375 0
  0.859375   0.593750 0
  0.796875   0.843750 0
  0.859375   0.578125 0
  0.796875   0.828125 0
  0.859375   0.562500 0
  0.796875   0.812500 0
  0.796875   0.796875 0
  0.859375   0.531250 0
  0.796875   0.781250 0
  0.796875   0.765625 0
  0.843750   0.750000 0
  0.781250   1.000000 0
  0.843750   0.625000 0
  0.781250   0.875000 0
  0.843750   0.734375 0
  0.781250   0.984375 0
  0.843750   0.718750 0
  0.781250   0.968750 0
  0.843750   0.703125 0
  0.781250   0.953125 0
  0.843750   0.687500 0
  0.781250   0.937500 0
  0.843750   0.609375 0
  0.781250   0.859375 0
  0.843750   0.593750 0
  0.781250   0.843750 0
  0.843750   0.578125 0
  0.781250   0.828125 0
  0.781250   0.812500 0
  0.843750   0.546875 0
  0.781250   0.796875 0
  0.781250   0.781250 0
  0.843750   0.515625 0
  0.781250   0.765625 0
  0.828125   0.750000 0
  0.765625   1.000000 0
  0.828125   0.625000 0
  0.765625   0.875000 0
  0.828125   0.734375 0
  0.765625   0.984375 0
  0.828125   0.718750 0
  0.765625   0.968750 0
  0.828125   0.703125 0
  0.765625   0.953125 0
  0.828125   0.687500 0
  0.765625   0.937500 0
  0.828125   0.609375 0
  0.765625   0.859375 0
  0.828125   0.593750 0
  0.765625   0.843750 0
  0.828125   0.578125 0
  0.765625   0.828125 0
  0.828125   0.562500 0
  0.765625   0.812500 0
  0.765625   0.796875 0
  0.828125   0.531250 0
  0.765625   0.781250 0
  0.765625   0.765625 0
  0.812500   0.750000 0
  0.750000   1.000000 0
  0.953125   1.000000 0
  0.812500   0.734375 0
  0.750000   0.984375 0
  0.812500   0.718750 0
  0.750000   0.968750 0
  0.812500   0.703125 0
  0.750000   0.953125 0
  0.812500   0.687500 0
  0.750000   0.937500 0
  0.812500   0.671875 0
  0.750000   0.921875 0
  0.812500   0.656250 0
  0.750000   0.906250 0
  0.812500   0.640625 0
  0.750000   0.890625 0
  0.812500   0.625000 0
  0.750000   0.875000 0
  0.812500   0.609375 0
  0.750000   0.859375 0
  0.812500   0.593750 0
  0.750000   0.843750 0
  0.812500   0.578125 0
  0.750000   0.828125 0
  0.750000   0.812500 0
  0.812500   0.546875 0
  0.750000   0.796875 0
  0.750000   0.781250 0
  0.812500   0.515625 0
  0.750000   0.765625 0
  0.796875   0.750000 0
  0.734375   1.000000 0
  0.796875   0.734375 0
  0.734375   0.984375 0
  0.796875   0.718750 0
  0.734375   0.968750 0
  0.796875   0.703125 0
  0.734375   0.953125 0
  0.796875   0.687500 0
  0.734375   0.937500 0
  0.796875   0.671875 0
  0.734375   0.921875 0
  0.796875   0.656250 0
  0.734375   0.906250 0
  0.796875   0.640625 0
  0.734375   0.890625 0
  0.796875   0.625000 0
  0.734375   0.875000 0
  0.796875   0.609375 0
  0.734375   0.859375 0
  0.796875   0.593750 0
  0.734375   0.843750 0
  0.796875   0.578125 0
  0.734375   0.828125 0
  0.734375   0.812500 0
  0.734375   0.796875 0
  0.796875   0.531250 0
  0.734375   0.781250 0
  0.734375   0.765625 0
  0.781250   0.750000 0
  0.718750   1.000000 0
  0.921875   1.000000 0
  0.781250   0.734375 0
  0.718750   0.984375 0
  0.781250   0.718750 0
  0.718750   0.968750 0
  0.781250   0.703125 0
  0.718750   0.953125 0
  0.859375   0.906250 0
  0.781250   0.687500 0
  0.718750   0.937500 0
  0.781250   0.671875 0
  0.718750   0.921875 0
  0.781250   0.656250 0
  0.718750   0.906250 0
  0.781250   0.640625 0
  0.718750   0.890625 0
  0.781250   0.625000 0
  0.718750   0.875000 0
  0.781250   0.609375 0
  0.718750   0.859375 0
  0.781250   0.593750 0
  0.718750   0.843750 0
  0.781250   0.578125 0
  0.718750   0.828125 0
  0.781250   0.562500 0
  0.718750   0.812500 0
  0.781250   0.546875 0
  0.718750   0.796875 0
  0.781250   0.531250 0
  0.718750   0.781250 0
  0.781250   0.515625 0
  0.718750   0.765625 0
  0.765625   0.750000 0
  0.703125   1.000000 0
  0.765625   0.734375 0
  0.703125   0.984375 0
  0.765625   0.718750 0
  0.703125   0.968750 0
  0.765625   0.703125 0
  0.703125   0.953125 0
  0.765625   0.687500 0
  0.703125   0.937500 0
  0.843750   0.890625 0
  0.703125   0.921875 0
  0.765625   0.656250 0
  0.703125   0.906250 0
  0.765625   0.640625 0
  0.703125   0.890625 0
  0.765625   0.625000 0
  0.703125   0.875000 0
  0.765625   0.609375 0
  0.703125   0.859375 0
  0.765625   0.593750 0
  0.703125   0.843750 0
  0.765625   0.578125 0
  0.703125   0.828125 0
  0.765625   0.562500 0
  0.703125   0.812500 0
  0.765625   0.546875 0
  0.703125   0.796875 0
  0.765625   0.531250 0
  0.703125   0.781250 0
  0.765625   0.515625 0
  0.703125   0.765625 0
  0.750000   0.750000 0
  0.687500   1.000000 0
  0.890625   1.000000 0
  0.750000   0.734375 0
  0.687500   0.984375 0
  0.750000   0.718750 0
  0.687500   0.968750 0
  0.578125   0.796875 0
  0.578125   0.781250 0
  0.578125   0.765625 0
  0.546875   0.953125 0
  0.546875   0.968750 0
  0.546875   0.718750 0
  0.546875   0.687500 0
  0.250000   0.609375 0
  0.937500   0.031250 0
  0.046875   0.703125 0
  0.734375   0.062500 0
  0.734375   0.078125 0
  0.734375   0.046875 0
  0.046875   0.593750 0
  0.046875   0.562500 0
  0.046875   0.531250 0
  0.718750   0.156250 0
  0.046875   0.609375 0
  0.734375   0.031250 0
  0.062500   0.609375 0
  0.234375   0.703125 0
  0.718750   0.125000 0
  0.046875   0.578125 0
  0.734375   0.000000 0
  0.062500   0.578125 0
  0.000000   0.828125 0
  0.234375   0.671875 0
  0.234375   0.625000 0
  0.718750   0.093750 0
  0.687500   0.156250 0
  0.062500   0.546875 0
  0.000000   0.796875 0
  0.718750   0.046875 0
  0.031250   0.687500 0
  0.687500   0.171875 0
  0.500000   1.000000 0
  0.078125   0.218750 0
  0.234375   0.593750 0
  0.718750   0.062500 0
  0.687500   0.125000 0
  0.000000   0.765625 0
  0.421875   0.500000 0
  0.031250   0.593750 0
  0.718750   0.015625 0
  0.687500   0.234375 0
  0.015625   0.812500 0
  0.703125   0.171875 0
  0.703125   0.187500 0
  0.703125   0.140625 0
  0.015625   0.781250 0
  0.437500   0.515625 0
  0.500000   0.796875 0
  0.078125   0.015625 0
  0.687500   0.203125 0
  0.250000   0.578125 0
  0.703125   0.109375 0
  0.000000   0.515625 0
  0.500000   0.765625 0
  0.062500   0.593750 0
  0.750000   0.015625 0
  0.015625   0.843750 0
  0.687500   0.000000 0
  0.500000   0.828125 0
  0.078125   0.046875 0
  0.015625   0.531250 0
  0.250000   0.546875 0
  0.703125   0.078125 0
  0.703125   0.031250 0
  0.015625   0.671875 0
  0.250000   0.515625 0
  0.000000   0.656250 0
  0.500000   0.906250 0
  0.078125   0.125000 0
  0.687500   0.015625 0
  0.031250   0.546875 0
  0.687500   0.031250 0
  0.500000   0.859375 0
  0.703125   0.000000 0
  0.703125   0.046875 0
  0.703125   0.015625 0
  0.500000   0.937500 0
  0.234375   0.531250 0
  0.031250   0.578125 0
  0.687500   0.062500 0
  0.500000   0.890625 0
  0.031250   0.796875 0
  0.453125   0.531250 0
  0.500000   0.968750 0
  0.078125   0.187500 0
  0.234375   0.562500 0
  0.031250   0.609375 0
  0.718750   0.031250 0
  0.687500   0.093750 0
  0.750000   0.046875 0
  0.000000   0.937500 0
  0.421875   0.671875 0
  0.718750   0.187500 0
  0.031250   0.828125 0
  0.765625   0.062500 0
  0.015625   0.953125 0
[...]
CELL_DATA 7648
SCALARS scalar_value float 1
LOOKUP_TABLE default
1.09828
1.0992
1.104
1.09546
1.08984
1.06563
1.07756
1.13511
1.11946
1.05631
0.792409
1.10644
1.10395
1.13656
1.1358
1.18148
1.06833
1.24194
1.28265
1.00785
1.01522
1.01133
1.07857
1.22604
0.952935
1.31762
1.2763
1.22788
1.28752
1.15939
1.13526
1.14898
1.14426
1.08273
1.078
1.08956
1.0632
1.11374
1.78996
1.39878
1.07296
1.32703
0.549453
1.07297
1.10304
0.933021
0.891098
0.950843
1.10378
0.804271
1.15632
1.15554
1.08991
1.09042
1.11507
0.939342
0.977557
0.993969
0.71382
1.29283
1.36435
1.5373
1.07
1.56347
1.39468
1.80238
1.24473
1.0877
1.14382
1.08134
1.08713
1.08924
0.956609
0.956039
1.10374
1.05911
1.1111
1.19039
1.19508
1.28622
1.14395
1.13235
1.04862
1.24293
1.02693
1.16076
1.11719
1.18495
1.18049
1.21947
1.11126
1.08707
1.05241
1.03846
1.0563
1.01095
1.0158
1.06858
0.975559
1.14077
1.14939
1.2517
1.12407
1.35792
1.03339
0.799317
1.04372
0.647135
0.985494
0.99178
1.24242
1.04776
1.03263
1.04359
1.16383
1.14427
1.08042
1.23807
1.26312
1.30785
1.24659
1.02239
0.986155
1.0733
0.961546
1.09311
1.09957
0.960328
0.8891
0.946782
0.896797
1.08342
0.220186
1.60151
1.02036
1.00581
0.985621
1.11211
0.98633
1.06924
1.08578
0.94183
1.03771
1.0655
1.24291
1.06213
0.952262
1.1844
0.958247
0.900591
1.26751
1.13034
1.50479
0.724998
1.3709
0.544412
1.09788
0.89377
0.819169
0.863844
0.82174
0.861847
1.07655
0.980558
1.32169
1.17816
1.08622
1.08083
1.0759
0.804295
0.918262
0.913009
1.00774
1.00415
0.881183
0.965085
0.919908
0.978908
1.1304
1.43339
1.22442
1.12456
1.1062
1.20745
1.02599
1.09276
0.998168
0.841624
1.14541
0.855142
1.12875
1.06249
1.04719
0.911544
0.79316
1.10111
1.10305
1.18118
0.764943
1.08367
1.08142
1.09544
1.02052
1.06104
1.18664
1.1349
0.956918
0.891997
1.15609
1.06618
0.80767
1.06861
1.14765
0.908731
0.918711
1.06782
1.0488
1.05013
0.991663
0.969259
1.26208
1.07629
1.08086
1.48116
1.11473
1.22486
1.09867
0.981687
1.01029
0.771974
0.863257
1.08529
1.10268
1.29426
1.38238
1.16012
1.19452
1.05429
1.06858
1.07605
1.178
1.50902
1.00534
0.9237
1.05638
0.954617
1.11956
1.11665
1.11732
1.46417
1.29393
1.4648
1.18464
1.67824
1.57684
0.958041
0.972285
1.12186
1.19266
1.07587
1.10887
1.10133
1.10787
1.12799
1.01661
1.05397
1.01346
1.15004
1.1419
1.08105
1.03455
0.998894
1.04403
1.04245
1.05562
0.88555
0.301571
0.718046
1.12393
1.15362
1.10387
1.09023
1.1283
1.13237
1.188
1.28659
1.42948
1.08133
1.08373
1.1551
1.16801
1.16429
1.18772
1.14621
1.13105
1.12557
1.13267
1.13404
0.795168
1.14333
1.1348
1.1551
1.164
1.12622
1.11981
1.11932
1.0735
1.11744
1.1118
1.11328
1.1568
1.10266
1.09035
1.1046
1.0775
1.05151
1.10277
1.16946
1.15149
1.14105
1.09934
1.10916
0.610365
1.19321
0.974007
1.0635
1.55583
1.38595
1.51479
1.41044
1.4182
1.73576
1.3001
1.40909
1.55304
1.44299
1.61312
1.06854
1.05967
1.05869
1.36853
0.88633
1.37241
1.26991
1.05969
1.11163
1.07607
1.11987
1.08637
1.3867
1.11295
0.963848
0.77742
0.991455
1.02965
0.991812
1.06982
1.06133
1.58976
1.29265
1.16725
1.07107
1.08346
0.997467
1.11389
1.27141
1.00254
1.02519
0.990334
1.12059
1.03256
0.961931
1.52983
0.99165
1.00886
1.02045
1.00327
1.07942
1.09224
0.95788
0.936129
1.08463
1.13489
1.12656
1.12824
1.1407
1.04423
1.19875
1.02153
1.26402
1.10903
1.03287
0.9906
0.989808
0.967783
1.07643
1.07171
1.07626
0.690618
1.06439
1.03338
1.08486
1.16586
1.17779
1.21797
1.52942
0.999301
1.56622
1.12843
1.19989
1.08202
1.03939
0.97286
1.03376
1.0381
0.891526
1.09401
1.29899
0.785847
1.12561
1.04752
0.949403
1.19573
1.15315
1.11
1.28135
1.41357
0.708985
1.2415
1.23395
1.21927
1.11505
1.04205
1.05795
1.05325
1.06586
1.08688
0.987534
1.0101
1.61554
1.10269
0.981214
1.25137
1.42359
1.31115
1.33174
0.976627
1.10807
1.43035
1.09177
1.28894
1.07241
1.2782
1.09431
1.14985
1.12085
1.08734
1.00858
1.85843
1.12842
1.01345
1.05162
1.19017
1.0403
1.41166
1.177
1.03719
0.993444
1.17327
1.09468
1.00467
0.823882
0.711356
0.671831
0.994299
1.03007
1.11074
1.356
1.2061
1.11282
1.43225
0.954957
1.09656
0.842915
1.0869
1.1036
1.37731
1.17225
1.54303
1.1283
1.17466
1.43236
0.954844
1.18942
0.673952
0.796889
1.09787
1.18905
1.11624
1.85529
1.59363
1.18241
1.23842
1.14687
1.24405
1.19573
1.04884
1.21863
1.21189
1.22038
1.1418
1.23651
1.2004
1.1099
1.10166
1.0718
0.987938
1.18404
1.10856
1.25022
1.11522
1.04503
1.05499
0.981374
1.06108
1.10585
1.07732
1.02112
1.05508
1.0534
1.02733
1.28878
1.07272
1.0302
1.01999
0.993269
1.05571
0.941012
1.51824
1.02714
1.0979
1.44841
1.33769
1.08047
1.18058
1.04695
1.03289
1.07685
1.1334
1.19144
1.1334
1.14236
1.17828
1.11548
1.19692
1.14334
1.30373
1.28938
1.17728
1.24903
1.08632
1.16038
1.19802
1.15834
1.13373
1.66551
1.29059
1.34632
1.1722
1.08808
1.52475
1.22678
1.09766
1.07516
1.08266
1.0579
1.07175
1.40963
1.26353
0.886888
1.07153
1.10871
1.07249
1.13087
1.16261
1.07351
1.09968
1.14564
1.10259
1.08891
1.26531
1.07296
1.05195
0.753717
1.07306
1.28874
1.03462
1.1206
1.07629
1.08003
1.03551
1.09558
1.25996
1.26362
1.23134
1.36214
1.02869
1.10189
1.10118
0.587846
1.04193
0.975175
1.0097
1.12605
0.784429
1.26433
1.15986
1.1498
1.06205
1.09261
1.00413
1.12449
1.04385
1.17247
1.09905
1.31181
1.05939
1.17958
1.14432
1.51522
1.26735
1.07032
0.809711
1.4282
1.02652
1.07817
1.17365
0.990428
1.33781
1.48349
1.21268
1.12907
1.17888
1.10151
1.15487
1.25419
1.36255
1.15323
1.19579
1.24917
1.13017
1.21733
0.731676
1.09179
1.01151
0.882429
1.06068
0.931686
1.15557
1.0318
1.20767
1.06735
1.13206
0.980048
1.00722
1.15317
0.964574
1.17118
1.34013
0.825763
0.774842
1.03261
0.944492
1.27293
0.85657
1.32338
1.10373
1.17798
1.19076
0.938088
0.968945
1.03311
1.11566
1.04202
1.25307
1.11633
1.38079
1.02636
1.04211
1.19661
1.14274
1.10724
1.10626
1.20857
1.21918
1.06768
1.05768
1.22261
1.06936
1.29288
0.984626
1.45939
0.858524
0.681204
0.967823
1.01703
1.10117
1.49238
1.06781
0.866067
0.604989
0.921062
1.11001
1.13584
1.39598
1.21074
1.10768
1.14487
0.196524
1.10091
0.94398
0.922831
1.14689
0.839313
1.10194
0.628788
1.17975
1.1719
1.07222
1.11899
1.09674
1.05528
1.07706
1.15233
0.948728
1.12672
1.04373
1.12982
1.10495
1.1884
0.859212
1.35319
0.325649
1.03326
0.933957
1.081
1.18783
1.11379
0.947227
0.796986
0.999683
0.902073
1.53562
1.08957
0.816375
1.25744
1.13066
1.01621
1.09839
1.12714
0.954086
0.975046
1.15171
1.10455
1.11132
1.08313
1.12735
1.13731
1.102
1.17489
1.0654
0.957771
1.07011
1.10287
1.09318
1.16543
1.13386
1.12177
1.15278
1.11871
1.17103
1.09703
0.928181
1.22415
1.04998
1.00561
0.818794
1.38872
1.04363
1.0396
1.13733
1.02518
0.895099
1.15041
1.1148
1.25695
1.05902
1.09004
1.09516
1.08901
0.914819
1.14718
1.03924
1.04393
0.895449
1.23042
1.07946
1.08493
0.801357
0.824199
0.864719
0.969984
1.81103
1.10835
1.00839
0.994013
1.1348
1.11786
1.06581
1.14353
1.10423
1.07228
1.14816
1.12739
0.973833
1.01816
0.953504
1.15816
1.0522
1.08615
1.31723
1.11421
1.06962
1.71096
1.07505
1.0924
1.14466
1.13918
1.04126
1.11221
0.928141
1.39444
1.55558
1.07116
1.06764
0.87073
1.09564
1.17265
0.912844
1.35947
1.12468
1.10952
0.901642
1.16789
1.49673
1.22696
0.930368
0.847113
1.19143
1.10196
1.12409
1.86568
1.15413
0.860994
1.13283
0.306999
1.03233
0.732607
1.12065
1.10424
0.656845
0.608917
1.06491
0.782286
1.19463
1.16004
1.06985
1.15904
1.74522
1.14473
1.17318
1.07033
1.03899
1.12599
0.306076
1.12197
0.760835
0.305354
1.1049
1.13087
0.958108
1.0574
1.22556
1.12454
1.42954
1.10326
1.05591
1.39839
1.50295
0.796485
1.35717
1.0451
0.927141
1.12576
1.15901
0.524168
0.883345
1.13399
1.1161
0.989102
0.425224
1.06513
1.01674
1.02047
1.0675
1.19559
1.10211
1.01474
1.10536
0.964144
1.26362
0.97609
0.703392
1.38449
1.10884
1.11137
1.49329
0.796019
1.78353
1.48373
1.0934
1.06481
1.06221
1.17427
1.05777
0.989097
1.0666
1.06311
1.05944
0.998862
1.10627
0.994511
1.07272
0.342119
0.969353
1.12754
1.0282
1.44749
1.11903
1.07817
1.0962
1.09991
1.13022
1.27527
1.12074
0.985916
0.891841
1.09696
1.05516
1.08477
1.08929
1.11151
1.02018
1.12452
1.02914
1.03128
1.69966
1.0303
1.40941
0.61473
1.08961
0.76546
1.50045
1.21385
1.29406
1.12721
1.13838
0.876228
1.05637
1.04658
1.12957
1.20975
1.09776
1.25124
1.23676
1.14779
1.13934
1.13696
1.09073
1.12944
1.11056
1.72504
1.02993
1.37955
0.864144
1.08332
0.922799
0.921836
1.10751
1.10114
1.20431
1.12684
1.28107
0.964968
0.95857
1.1032
1.08043
1.1407
1.14914
1.14253
1.10345
0.98804
1.62904
1.1007
1.06601
1.06573
1.50679
1.17599
1.06821
1.06911
1.1107
1.08999
1.099
1.11866
1.11842
1.05482
1.03932
1.089
1.24283
1.53742
0.904565
1.101
0.882279
1.0367
1.59049
1.48957
1.06569
1.13866
1.14752
1.11993
0.897958
1.83845
0.779977
0.829934
1.3117
1.21451
1.23738
1.02886
1.03145
0.71504
0.997722
1.07866
0.991053
1.10163
1.06869
1.22678
1.21233
1.08912
0.777916
0.848066
1.07691
0.891716
1.08746
1.09511
0.92223
1.14035
1.07279
1.11893
1.12769
1.16983
1.3738
1.12033
1.31793
1.08177
1.09639
1.06006
1.12555
1.13679
1.09972
1.08566
0.878341
1.11659
1.24277
0.932943
1.02652
1.07416
1.06704
0.317483
1.09464
1.2014
1.10607
1.11498
1.10636
0.580469
1.10387
1.06215
1.02814
0.862498
1.23334
1.49373
1.07758
1.40706
1.0509
0.969954
1.12266
0.753495
1.02694
1.10405
1.21781
1.18144
1.02082
1.47221
1.08458
0.829896
1.11295
1.10243
1.36949
1.01694
1.18202
1.01177
1.03234
1.10122
1.24571
1.19243
1.03491
0.751917
0.895858
0.856949
1.0892
1.18726
1.16909
1.1558
1.17124
1.25392
1.22131
1.0971
1.08797
1.09442
1.37057
1.70697
1.39032
0.743083
0.843634
0.802775
0.845424
1.02248
1.14345
1.21785
1.17598
1.04964
1.09643
1.10069
1.10438
1.11527
1.08138
1.15519
1.38668
1.21588
0.838368
1.08331
1.09675
0.986138
1.1071
1.08976
1.09194
1.14966
1.17555
1.17818
1.07457
1.10639
1.08119
1.3275
1.58787
1.39674
1.38494
1.05746
1.05973
1.06544
1.36894
0.500432
1.08059
1.04125
1.14114
1.13183
1.13534
1.1351
1.15145
0.960393
0.859058
1.34333
1.30523
1.25229
1.2212
1.18848
1.06393
1.05672
1.05715
1.16527
1.09931
1.20759
1.08493
1.52264
1.38426
1.23674
1.14006
1.14201
1.11408
1.11172
1.09722
1.10648
1.08049
1.10754
1.02563
0.662183
0.231485
0.937908
0.457033
0.578216
1.07938
1.03331
0.962745
0.96105
0.962228
1.05915
1.07824
1.06575
1.07265
1.18791
1.26629
1.20916
1.18033
0.997616
1.05626
1.00649
1.15074
0.341347
1.03055
1.36466
1.23185
1.26795
1.11667
1.28659
0.891827
1.26072
0.897329
1.10725
1.12926
1.11129
1.11726
0.985852
0.425406
1.07216
1.07663
1.41461
1.30377
1.00291
1.23243
1.10554
1.10255
1.10176
1.07974
1.00353
1.12861
1.13981
1.14512
0.902087
0.947561
0.926113
0.926699
1.14044
1.07258
1.16112
0.940476
1.04049
1.06336
1.07322
1.15784
1.3269
1.11841
1.12317
1.12307
1.1273
1.13394
1.15934
1.1832
1.04308
1.2081
1.26054
1.01925
1.12087
1.61114
1.31674
1.33415
0.811946
0.928625
0.880381
1.83665
1.08092
1.13682
1.1368
1.14067
1.14724
1.18133
0.837488
0.809007
1.0562
1.06418
1.06971
0.974547
1.01144
1.01291
1.0457
1.04568
1.03573
1.13568
1.19014
1.22682
1.07171
1.08727
1.08303
1.08585
1.08668
1.12416
1.15597
1.11905
1.17947
1.18411
1.19851
1.19964
1.21431
1.11814
1.12717
1.13357
1.13474
1.10988
0.542401
1.1182
0.37049
1.24641
1.05338
1.07499
1.0427
1.00543
1.05477
1.02743
1.01955
1.26456
1.13295
1.08449
1.10435
1.26358
1.34808
1.20286
1.1046
1.25903
1.29102
1.29388
1.3277
1.12878
1.10985
1.06318
1.04245
1.07973
1.65014
1.17534
1.0688
1.29224
1.06075
1.03972
0.988717
1.10738
1.18679
1.35547
1.84492
1.59112
1.41797
1.39951
1.50691
1.44303
1.28695
1.29179
1.20402
1.33371
1.30587
1.29407
1.24573
1.1509
1.13954
1.18622
1.1318
0.941994
0.959204
0.935623
1.03723
1.0304
0.950115
0.966677
0.959134
0.960314
1.07864
1.07488
1.1903
1.06817
1.08217
1.09336
1.0847
1.07871
1.02853
1.04051
1.04984
1.07507
1.03531
1.08567
1.30258
0.30567
0.554654
0.724233
1.06829
1.05308
1.4407
1.04613
1.36388
1.18446
1.05776
1.42668
0.829007
1.316
1.16365
1.0134
1.0183
0.87684
1.41377
1.04073
1.39254
1.31573
1.09556
1.41862
1.0398
1.34775
1.38246
1.01505
1.04949
1.05837
1.04915
1.04545
1.21656
1.16236
1.14039
1.14221
1.07281
1.13809
1.05359
1.04549
0.958109
1.08817
1.12393
1.19164
1.13403
1.18441
1.00934
0.88708
0.931579
1.12486
1.11318
1.20139
1.08289
0.996685
1.51045
1.15966
0.977915
1.07197
1.03799
1.03543
1.02464
1.20071
1.04235
1.12163
1.12463
1.27747
1.16995
0.929719
1.09113
0.961831
1.1049
0.990789
1.13801
1.07808
1.13695
1.12551
1.0537
1.0442
0.796916
0.695
0.314891
1.045
1.04901
1.08692
1.07309
1.07942
1.06906
1.662
1.4056
1.34871
1.07122
1.08248
1.07541
1.07268
1.64426
1.87495
1.78455
0.974207
1.02948
1.00825
0.992006
1.01622
1.08723
0.80552
0.743804
1.06666
1.07194
0.888517
0.823137
0.8226
0.716819
0.20376
0.991173
1.21333
1.21095
1.18019
1.06774
1.09281
1.04191
1.04458
1.06486
1.07908
1.17099
1.24153
1.16992
1.10051
1.06369
1.08944
1.18051
0.354966
0.776598
1.06761
1.14241
1.28005
1.1295
1.03469
1.55651
1.18529
1.18508
1.18824
1.21091
1.20505
1.15301
1.35065
1.22877
1.26062
1.26466
1.18936
1.19456
1.18937
0.904939
0.875448
1.12149
0.725451
0.287125
0.66258
0.324448
0.611075
0.528379
1.04151
1.27738
0.920012
0.808566
0.902943
0.967952
0.999229
1.04034
1.02738
1.04603
1.11908
1.11818
1.15802
1.45509
1.29925
1.17261
1.11338
1.07449
1.06771
0.583784
0.921633
1.44939
1.29614
1.33934
1.30093
1.06968
1.04443
0.748947
1.07892
0.872077
1.18723
1.1868
1.40324
1.07042
0.960765
1.22272
1.1445
1.04638
1.17407
1.13196
1.18303
0.977039
0.997676
0.996934
0.965729
0.970852
1.10154
1.08793
1.21986
1.27753
0.989985
1.01295
1.03741
1.26891
1.00715
1.04524
1.04159
0.411561
1.17072
1.10143
1.07535
1.20318
1.1604
1.12211
1.12629
1.13038
1.13172
1.13258
1.12019
1.13163
1.1319
1.1377
1.51489
1.51035
1.10328
1.11279
1.10862
1.14057
1.14671
1.15778
0.741088
0.827507
1.08583
1.16392
1.17435
1.03555
0.855028
0.643904
0.983695
1.6369
1.40916
0.973583
1.39098
1.10323
1.08527
1.0828
1.09999
1.08398
0.998345
1.07323
0.768276
0.746241
0.723459
0.503579
0.40275
0.844211
0.766113
0.818507
0.813201
0.613302
1.0865
1.09346
1.0942
1.08683
0.975851
1.08135
1.31946
1.07495
0.971456
0.596524
0.820095
0.621914
0.656754
0.904105
1.03021
0.862049
0.763878
1.06112
1.04867
1.19982
1.06687
0.939416
1.12867
1.37504
0.828126
0.859716
1.33842
1.13394
1.47249
0.321277
0.836764
0.721805
1.10449
0.984515
0.97119
0.97466
1.01845
1.03185
1.1198
1.12131
1.12476
1.12221
1.12508
1.12775
1.38615
1.07068
1.05194
1.02056
1.00408
1.08344
1.11466
1.11201
1.1155
1.1195
1.20813
1.14521
1.10158
1.0582
0.862258
1.08375
1.00934
1.13074
1.07948
1.20742
1.14494
1.03052
1.28296
1.11684
1.07257
1.07131
1.06411
1.31727
1.14355
1.23923
0.888103
0.526899
0.218202
1.15742
1.22769
0.982598
1.00527
0.992656
1.01871
0.813578
1.13857
1.11123
1.45074
1.54737
1.0926
1.09773
1.09699
0.999104
0.965966
0.924389
0.93185
0.917629
0.900939
1.01644
1.0303
1.37437
1.49295
1.41249
1.34154
1.0868
1.08391
1.13099
1.0746
1.10874
1.77067
1.54002
1.07399
1.06262
1.11287
1.12414
1.10703
1.11751
1.12132
1.09716
1.06327
1.00327
1.01599
1.16251
1.14611
1.15532
1.15655
1.237
1.03602
1.21797
1.10782
0.99887
0.277344
1.11445
1.14778
1.134
1.15342
1.14215
1.31702
1.23734
1.54442
0.799377
0.770698
0.688857
1.13193
1.11698
1.1293
1.12647
1.12091
1.11884
1.12824
1.06545
1.3222
1.07759
0.568466
0.719693
0.301781
1.06245
1.71088
1.06494
1.51355
1.05098
1.06027
1.10336
1.11639
1.43757
1.38751
0.549524
0.446823
0.232517
1.20173
1.15416
1.28174
1.117
1.1031
1.2804
1.31988
1.34777
1.43062
1.09761
1.11338
1.03565
1.05224
1.06902
0.874231
1.0855
1.09722
1.05164
1.06317
1.06545
1.03943
1.02697
1.12223
1.13089
1.133
1.11924
1.133
1.10927
1.12673
1.11948
1.19132
1.19764
1.0804
1.77246
1.53862
1.44963
0.850301
0.954598
0.746006
1.18808
0.976883
0.890288
0.936912
0.981802
1.00162
1.04942
1.20691
1.21137
1.43838
1.31375
1.20054
0.963313
0.996635
0.999427
1.09946
1.13378
1.11401
1.11206
1.09591
1.09411
1.08547
0.312121
1.00333
1.00773
1.01203
1.01631
1.02093
1.02661
1.0347
1.04735
1.06753
1.0984
1.14111
1.19177
1.24183
1.28384
1.31258
1.322
1.30879
1.27833
1.23995
1.19982
1.1614
1.12829
1.10381
1.08917
1.08353
1.08526
1.09313
1.10685
1.12724
1.15541
1.19031
1.22555
1.00179
1.00593
1.01382
1.02246
1.03945
1.08592
1.12921
1.24208
1.32135
1.31605
1.23856
1.19809
1.22043
1.00293
1.00647
1.00973
1.01267
1.01555
1.01906
1.02473
1.03544
1.05615
1.09401
1.15499
1.23257
1.30178
1.34717
1.36672
1.35319
1.30485
1.2443
1.19322
1.15575
1.12819
1.1075
1.09257
1.08299
1.07817
1.07753
1.08102
1.09
1.10806
1.14108
1.19345
1.25648
1.00504
1.0081
1.0129
1.01861
1.04096
1.13092
1.2173
1.36233
1.38309
1.25614
1.12302
1.00267
1.00553
1.00779
1.00919
1.0097
1.00966
1.01027
1.01443
1.02872
1.06695
1.15244
1.29204
1.39588
1.43943
1.45819
1.42815
1.31574
1.2009
1.13567
1.10491
1.09011
1.08181
1.07626
1.07212
1.0688
1.06597
1.06403
1.06508
1.07508
1.10739
1.18467
1.31142
1.00165
1.00675
1.00803
1.00692
1.0046
1.03382
0.412203
1.28981
1.18672
0.68597
1.09711
0.872711
1.33144
1.05905
0.97316
1.04388
1.0211
1.28073
1.03898
1.03943
1.03904
1.04205
1.03738
1.16181
1.04599
0.947774
0.212944
0.857911
0.819122
1.05093
0.919255
1.05777
1.05909
1.05249
1.04546
1.05283
1.0363
1.04545
1.04031
1.03637
1.09535
1.36317
1.22653
1.02135
1.38938
1.14642
1.02961
1.09776
1.05649
1.33245
1.07059
1.06744
1.05657
1.06338
1.19227
1.05046
1.05222
1.04922
1.04038
0.968616
0.652618
1.02414
1.77709
1.62035
1.01272
1.73004
1.03517
2.12878
1.05591
1.49775
1.07367
1.08697
1.14472
1.09469
1.09701
1.07544
1.09904
1.05272
1.11713
1.03668
1.17066
1.11772
1.11863
1.0061
1.10232
1.06759
1.07891
1.00284
0.992978
1.00514
1.26634
1.03284
1.22387
1.01018
1.4181
1.62122
1.5879
1.10296
1.44509
1.00181
1.65245
1.82217
0.911089
1.68404
1.33717
1.16749
1.21619
1.16927
1.08545
1.13249
1.09484
1.0573
1.06269
1.04068
1.05418
1.10275
1.14458
1.09221
1.01285
1.23368
1.11333
0.974316
1.28157
1.51305
1.01794
1.61003
1.04733
1.67144
1.07576
1.56754
1.10178
1.39781
1.12303
1.13747
1.2273
1.14482
1.14745
1.09528
1.05306
1.16342
1.03023
1.19329
1.08438
1.07736
1.05438
1.00602
1.01077
1.01342
1.03309
1.08746
1.19951
1.33663
1.43558
1.52884
0.917094
1.62236
1.61429
0.611173
1.48712
1.37581
1.29218
1.20667
1.12202
1.06277
1.03138
1.07188
1.0162
1.05365
1.16831
1.19365
1.12884
1.28039
1.05177
1.36772
1.10545
0.869292
1.48366
1.0612
1.1785
0.885379
1.61512
1.09898
1.23824
1.62675
1.13615
1.26639
0.970822
1.16798
1.26959
1.44818
1.18988
1.24766
1.04683
1.20023
1.20296
1.21309
1.20063
1.17354
1.10374
1.09503
1.19569
1.20691
1.03424
1.30223
1.01115
1.19748
1.06337
0.989835
1.05318
0.957197
1.02897
0.76036
0.941548
0.985091
0.975622
1.0232
1.10701
1.05741
1.04111
1.0183
1.06438
1.08313
1.08343
1.07238
1.14455
1.02529
1.08181
1.21559
1.08694
1.09325
1.28958
1.08574
1.10737
1.39443
1.11438
1.1247
1.56914
0.799258
1.19736
1.14513
1.67671
1.52588
1.22159
1.44407
1.18724
1.2984
1.15696
1.03102
1.1227
1.18038
1.03542
1.29761
1.05352
1.00478
1.05991
1.03469
1.0286
1.29975
1.02035
1.29215
1.02352
1.67168
1.02227
1.54071
1.08024
1.17708
1.02651
1.50416
1.1598
1.06186
1.38648
1.2118
1.0325
1.09613
1.33927
1.13529
0.99206
1.69275
1.12413
1.1665
0.979357
1.83263
1.17834
1.17989
1.66493
1.22638
1.17301
1.02436
1.25761
1.14749
1.64935
1.26927
1.11311
1.11117
1.26247
1.09888
1.15042
1.03723
1.24039
1.17202
1.17149
0.98166
1.21293
1.46009
0.976201
1.05249
1.04333
0.90935
1.02377
0.846692
0.99052
1.35582
0.775937
1.03102
1.10429
1.05503
1.01169
1.02336
1.08185
1.06743
1.05903
1.02645
1.0757
1.0872
1.07407
1.08556
1.11307
1.05407
1.0973
1.13919
1.07961
1.1112
1.2049
1.11312
1.12725
1.50754
1.11915
1.14497
2.14313
0.840146
1.15615
1.16306
1.74237
1.1299
1.80725
1.09375
1.00929
1.3868
1.06188
1.03483
1.08244
1.01839
0.959679
0.957575
1.18964
1.05179
1.0462
1.34972
1.03237
1.00823
1.0274
1.27419
1.02377
1.37659
1.02503
1.40312
1.03122
1.38815
1.04291
1.35307
1.06035
1.08202
1.12584
1.02795
1.08164
1.10342
1.01714
1.15272
1.03584
1.34538
0.96231
1.22092
0.867579
1.29382
0.944071
1.25666
0.894611
1.22539
1.26239
1.26372
0.931805
1.17517
1.0283
1.00798
1.07269
1.02323
1.02171
1.03643
1.03848
1.08753
1.02403
0.985942
1.0709
1.11298
0.922905
0.904921
0.870418
1.00522
0.938505
1.00952
0.77202
0.841665
1.00668
0.843243
0.985039
0.902154
1.0207
1.2391
1.01927
1.28106
1.02297
1.2967
1.03048
1.28466
1.04122
1.24796
0.963144
1.05444
1.18531
1.0383
1.0684
1.07984
1.0487
0.431224
1.14428
1.07515
1.0185
1.00521
1.01938
1.01396
1.07108