# vtk DataFile Version 2.0
Unstructured Grid by M++
ASCII
DATASET UNSTRUCTURED_GRID
POINTS 4072 float
  0.828125   0.890625 0
  0.875000   0.531250 0
  0.828125   0.750000 0
  0.593750   0.968750 0
  0.828125   0.671875 0
  0.828125   0.875000 0
  0.593750   0.937500 0
  0.828125   0.656250 0
  0.828125   0.640625 0
  0.828125   0.843750 0
  0.593750   0.906250 0
  0.828125   0.625000 0
  0.781250   0.968750 0
  0.828125   0.609375 0
  0.828125   0.812500 0
  0.593750   0.875000 0
  0.593750   0.828125 0
  0.593750   0.796875 0
  0.828125   0.703125 0
  0.593750   0.765625 0
  0.828125   0.937500 0
  0.812500   0.875000 0
  0.859375   0.515625 0
  0.812500   0.734375 0
  0.812500   0.937500 0
  0.578125   1.000000 0
  0.578125   0.750000 0
  0.812500   0.687500 0
  0.578125   0.953125 0
  0.812500   0.656250 0
  0.812500   0.859375 0
  0.578125   0.921875 0
  0.812500   0.828125 0
  0.578125   0.890625 0
  0.812500   0.593750 0
  0.812500   0.796875 0
  0.578125   0.859375 0
  0.578125   0.812500 0
  0.578125   0.781250 0
  0.796875   1.000000 0
  0.796875   0.859375 0
  0.796875   0.718750 0
  0.562500   0.984375 0
  0.562500   0.937500 0
  0.796875   0.843750 0
  0.562500   0.906250 0
  0.796875   0.812500 0
  0.562500   0.875000 0
  0.796875   0.578125 0
  0.796875   0.781250 0
  0.562500   0.843750 0
  0.812500   0.984375 0
  0.562500   0.796875 0
  0.812500   0.953125 0
  0.562500   0.765625 0
  0.796875   0.937500 0
  0.546875   0.750000 0
  0.781250   0.984375 0
  0.828125   0.593750 0
  0.781250   0.843750 0
  0.781250   0.937500 0
  0.546875   1.000000 0
  0.781250   0.703125 0
  0.546875   0.968750 0
  0.546875   0.921875 0
  0.781250   0.828125 0
  0.546875   0.890625 0
  0.781250   0.796875 0
  0.546875   0.859375 0
  0.781250   0.562500 0
  0.781250   0.765625 0
  0.546875   0.828125 0
  0.796875   0.968750 0
  0.546875   0.781250 0
  0.765625   1.000000 0
  0.765625   0.968750 0
  0.531250   0.984375 0
  0.765625   0.687500 0
  0.531250   0.953125 0
  0.531250   0.937500 0
  0.531250   0.906250 0
  0.765625   0.812500 0
  0.531250   0.875000 0
  0.765625   0.781250 0
  0.531250   0.843750 0
  0.781250   1.000000 0
  0.765625   0.546875 0
  0.765625   0.750000 0
  0.531250   0.812500 0
  0.781250   0.953125 0
  0.531250   0.765625 0
  0.515625   0.750000 0
  0.750000   0.984375 0
  0.750000   0.953125 0
  0.796875   0.593750 0
  0.796875   0.562500 0
  0.750000   0.843750 0
  0.750000   0.937500 0
  0.515625   1.000000 0
  0.750000   0.906250 0
  0.515625   0.968750 0
  0.750000   0.671875 0
  0.750000   0.875000 0
  0.515625   0.937500 0
  0.515625   0.921875 0
  0.515625   0.890625 0
  0.750000   0.796875 0
  0.515625   0.859375 0
  0.750000   0.765625 0
  0.515625   0.828125 0
  1.000000   0.718750 0
  0.750000   0.531250 0
  0.750000   0.734375 0
  0.515625   0.796875 0
  0.734375   1.000000 0
  0.734375   0.968750 0
  0.734375   0.937500 0
  0.781250   0.578125 0
  0.781250   0.546875 0
  0.968750   0.578125 0
  0.734375   0.828125 0
  0.968750   0.546875 0
  0.734375   0.796875 0
  0.734375   0.765625 0
  0.968750   0.671875 0
  0.734375   0.734375 0
  0.968750   0.640625 0
  0.734375   0.703125 0
  0.968750   0.609375 0
  0.734375   0.671875 0
  0.734375   0.656250 0
  0.734375   0.625000 0
  0.968750   0.531250 0
  0.734375   0.593750 0
  0.984375   0.734375 0
  0.984375   0.703125 0
  0.734375   0.515625 0
  0.718750   0.984375 0
  0.718750   0.953125 0
  0.718750   0.921875 0
  0.953125   0.562500 0
  0.718750   0.812500 0
  0.953125   0.531250 0
  0.718750   0.781250 0
  0.718750   0.750000 0
  0.953125   0.656250 0
  0.718750   0.718750 0
  0.953125   0.625000 0
  0.718750   0.687500 0
  0.953125   0.593750 0
  0.718750   0.656250 0
  0.671875   1.000000 0
  0.718750   0.640625 0
  0.718750   0.609375 0
  0.953125   0.515625 0
  0.718750   0.578125 0
  0.968750   0.718750 0
  0.968750   0.687500 0
  0.953125   0.671875 0
  0.703125   0.968750 0
  0.703125   0.937500 0
  0.937500   0.656250 0
  0.703125   0.906250 0
  0.937500   0.546875 0
  0.703125   0.796875 0
  0.937500   0.515625 0
  0.703125   0.765625 0
  0.937500   0.671875 0
  0.703125   0.734375 0
  0.937500   0.640625 0
  0.703125   0.703125 0
  0.937500   0.609375 0
  0.703125   0.671875 0
  0.937500   0.578125 0
  0.703125   0.640625 0
  0.656250   0.984375 0
  0.703125   0.625000 0
  0.703125   0.593750 0
  0.718750   0.796875 0
  0.953125   0.734375 0
  0.812500   1.000000 0
  0.859375   0.656250 0
  0.703125   0.781250 0
  0.937500   0.718750 0
  0.953125   0.703125 0
  0.796875   0.984375 0
  0.843750   0.640625 0
  0.812500   0.968750 0
  0.859375   0.625000 0
  0.796875   0.953125 0
  0.843750   0.609375 0
  0.687500   0.953125 0
  0.687500   0.921875 0
  0.687500   0.890625 0
  0.921875   0.734375 0
  0.687500   0.796875 0
  0.687500   0.781250 0
  0.921875   0.703125 0
  0.687500   0.765625 0
  0.687500   0.750000 0
  0.921875   0.656250 0
  0.687500   0.718750 0
  0.921875   0.625000 0
  0.687500   0.687500 0
  0.921875   0.593750 0
  0.687500   0.656250 0
  0.640625   1.000000 0
  0.921875   0.562500 0
  0.687500   0.625000 0
  0.640625   0.968750 0
  0.687500   0.609375 0
  0.687500   0.578125 0
  0.937500   0.687500 0
  0.921875   0.671875 0
  0.671875   0.921875 0
  0.906250   0.656250 0
  0.671875   0.906250 0
  0.671875   0.875000 0
  0.906250   0.718750 0
  0.671875   0.781250 0
  0.671875   0.765625 0
  0.671875   0.734375 0
  0.906250   0.640625 0
  0.671875   0.703125 0
  0.906250   0.609375 0
  0.671875   0.671875 0
  0.906250   0.578125 0
  0.671875   0.640625 0
  0.625000   0.984375 0
  0.671875   0.609375 0
  0.625000   0.953125 0
  0.671875   0.593750 0
  0.671875   0.562500 0
  0.765625   0.953125 0
  0.812500   0.609375 0
  0.656250   1.000000 0
  0.656250   0.953125 0
  0.656250   0.906250 0
  0.890625   0.640625 0
  0.656250   0.890625 0
  0.656250   0.859375 0
  0.890625   0.734375 0
  0.656250   0.796875 0
  0.812500   0.921875 0
  0.562500   1.000000 0
  0.625000   0.828125 0
  0.812500   0.843750 0
  0.843750   0.593750 0
  0.812500   0.812500 0
  0.625000   0.718750 0
  0.828125   0.687500 0
  0.640625   0.593750 0
  0.812500   0.781250 0
  0.625000   0.687500 0
  0.765625   0.828125 0
  0.640625   0.562500 0
  0.812500   0.750000 0
  0.562500   0.828125 0
  0.781250   0.875000 0
  0.546875   0.937500 0
  0.781250   0.671875 0
  0.781250   0.593750 0
  0.546875   0.656250 0
  0.796875   0.750000 0
  0.562500   0.812500 0
  0.796875   0.546875 0
  0.765625   0.796875 0
  0.765625   0.593750 0
  1.000000   0.531250 0
  0.812500   0.718750 0
  0.859375   0.562500 0
  0.625000   0.625000 0
  0.812500   0.703125 0
  0.812500   0.906250 0
  0.578125   0.968750 0
  0.984375   0.593750 0
  0.828125   0.578125 0
  0.828125   0.781250 0
  0.593750   0.843750 0
  0.812500   0.671875 0
  0.625000   0.578125 0
  0.796875   0.671875 0
  0.562500   0.734375 0
  0.984375   0.562500 0
  0.828125   0.546875 0
  0.812500   0.640625 0
  0.750000   0.812500 0
  0.625000   0.546875 0
  0.796875   0.640625 0
  0.562500   0.703125 0
  0.828125   0.515625 0
  0.781250   0.734375 0
  0.546875   0.796875 0
  0.781250   0.531250 0
  0.750000   0.781250 0
  0.625000   0.515625 0
  0.796875   0.609375 0
  0.562500   0.671875 0
  0.765625   0.656250 0
  0.765625   0.859375 0
  0.531250   0.921875 0
  0.812500   0.578125 0
  0.562500   0.656250 0
  0.984375   0.687500 0
  0.750000   0.750000 0
  0.812500   0.562500 0
  0.812500   0.765625 0
  0.578125   0.828125 0
  0.562500   0.625000 0
  0.984375   0.656250 0
  0.750000   0.718750 0
  0.812500   0.531250 0
  0.781250   0.656250 0
  0.546875   0.718750 0
  0.781250   0.625000 0
  0.546875   0.687500 0
  0.750000   0.640625 0
  0.796875   0.531250 0
  0.562500   0.593750 0
  0.984375   0.625000 0
  0.750000   0.687500 0
  0.546875   0.984375 0
  0.609375   0.812500 0
  0.796875   0.875000 0
  0.546875   0.953125 0
  0.609375   0.578125 0
  0.843750   0.515625 0
  0.765625   0.515625 0
  0.765625   0.718750 0
  0.531250   0.781250 0
  0.984375   0.546875 0
  0.750000   0.609375 0
  0.796875   0.828125 0
  0.671875   0.968750 0
  0.796875   0.796875 0
  0.796875   0.765625 0
  0.609375   0.671875 0
  0.796875   0.734375 0
  0.546875   0.812500 0
  0.796875   0.703125 0
  0.843750   0.546875 0
  0.609375   0.609375 0
  0.796875   0.687500 0
  0.562500   0.953125 0
  0.796875   0.656250 0
  0.609375   0.562500 0
  0.796875   0.625000 0
  0.609375   0.531250 0
  0.546875   0.640625 0
  0.765625   0.671875 0
  0.531250   0.734375 0
  0.796875   0.515625 0
  0.765625   0.640625 0
  0.531250   0.703125 0
  0.703125   1.000000 0
  0.765625   0.609375 0
  0.531250   0.671875 0
  0.765625   0.578125 0
  0.531250   0.640625 0
  0.546875   0.609375 0
  0.531250   1.000000 0
  0.890625   0.593750 0
  0.656250   0.656250 0
  0.781250   0.515625 0
  0.546875   0.578125 0
  0.531250   0.968750 0
  0.890625   0.562500 0
  0.656250   0.625000 0
  0.609375   0.968750 0
  0.781250   0.859375 0
  0.656250   0.593750 0
  0.750000   0.703125 0
  0.515625   0.765625 0
  0.781250   0.812500 0
  0.781250   0.781250 0
  0.593750   0.687500 0
  0.781250   0.750000 0
  0.593750   0.656250 0
  0.781250   0.718750 0
  0.531250   0.796875 0
  0.828125   0.562500 0
  0.593750   0.625000 0
  0.781250   0.687500 0
  0.828125   0.531250 0
  0.593750   0.593750 0
  0.812500   0.625000 0
  0.578125   0.687500 0
  0.781250   0.640625 0
  0.781250   0.609375 0
  0.593750   0.515625 0
  0.515625   0.781250 0
  0.812500   0.546875 0
  0.578125   0.609375 0
  0.812500   0.515625 0
  0.578125   0.578125 0
  0.750000   0.656250 0
  0.515625   0.718750 0
  0.750000   0.625000 0
  0.515625   0.687500 0
  0.687500   0.984375 0
  0.750000   0.593750 0
  0.515625   0.656250 0
  0.531250   0.546875 0
  0.750000   0.562500 0
  0.515625   0.625000 0
  0.531250   0.515625 0
  0.984375   0.515625 0
  0.750000   0.578125 0
  0.515625   0.531250 0
  0.828125   0.796875 0
  0.640625   0.703125 0
  0.828125   0.765625 0
[...]
CELL_DATA 7648
SCALARS scalar_value float 1
LOOKUP_TABLE default
-9.65708e-06
-1.10492e-05
-1.17197e-08
5.00466e-08
6.078e-09
9.68063e-09
0.0312333
0.104097
0.153704
0.152302
0.0966892
0.053658
0.151441
-0.00913705
0.185528
0.123234
0.183266
0.0442403
0.487278
0.455447
0.408631
0.475196
0.425407
0.296111
0.0859059
0.0500279
0.0630492
0.0167386
0.0447422
0.0252562
0.0307783
0.00864341
3.70869e-09
1.57947e-09
1.06412e-07
-2.63532e-09
0.0844994
0.137145
3.54074e-05
-6.98337e-06
0.380209
0.35622
0.0389017
0.0399418
-2.51803e-07
9.62907e-08
5.34369e-07
1.09243e-06
-8.51611e-07
-7.34145e-07
2.33388e-07
1.66443e-06
-2.57832e-06
-1.7362e-06
2.88824e-06
3.97757e-06
0.328446
0.41614
0.4785
0.478618
0.519316
0.445517
0.000152487
8.81522e-05
-4.52378e-06
4.45644e-05
3.80045e-05
0.000121844
-3.6333e-05
-4.11928e-05
2.42892e-07
8.64215e-06
2.50198e-06
0.501703
0.111004
8.5285e-08
3.75316e-07
1.54045e-08
1.00278e-08
-8.11969e-07
1.1366e-07
5.02497e-07
-7.20581e-07
9.19945e-07
8.21584e-07
-4.73527e-07
-4.16461e-07
8.21755e-06
5.30359e-06
8.25201e-08
-0.000142066
0.000179684
0.000124558
-0.000118583
-0.000229411
5.97026e-05
2.3819e-05
7.54069e-05
0.000166567
0.00032014
1.23044e-05
-2.84011e-05
-6.73559e-05
4.55141e-05
0.418404
0
0
1.17923e-10
-1.03206e-08
-1.30867e-09
-6.20225e-09
3.9739e-09
9.93988e-08
2.50544e-08
1.44933e-07
-3.30887e-08
9.23346e-09
7.15122e-09
-1.96762e-09
-0.0886586
-0.195245
-0.250642
-0.243421
-0.287132
-0.287348
-0.310291
-0.201867
6.72496e-09
3.81052e-09
-3.37313e-09
2.90964e-10
-2.17118e-08
-3.25197e-09
-1.39641e-08
5.22501e-09
0.0403788
0.0525234
0.0211765
0.0998695
0.214327
-6.67477e-10
-2.20025e-10
0.000104429
0.000270214
-0.000606008
-0.00176806
-0.000968556
0.000189012
0.283355
0.388716
0.474975
0.000989531
0.000338741
0.000922558
-0.000188768
-2.96398e-05
-3.44365e-05
-1.03924e-05
-1.36159e-05
-0.000138918
1.31764e-05
0.224213
0.2623
0.216257
0.207894
0.0558675
0.108194
0.148969
0.272486
0.082742
2.58629e-08
2.17974e-09
-1.68258e-10
-3.74958e-10
-3.77584e-08
-6.5679e-09
-0.0343964
-0.0539929
-0.104079
-0.0128219
-0.0719399
-0.0201501
-0.00380632
-0.00810204
0.000409991
-0.000558188
-0.00392263
0.000278506
0.000186262
-0.000492234
-0.00238076
0.0469208
0.00708688
0.00277581
0.000816771
0.00504091
-0.00166636
-6.41472e-07
-2.78597e-07
-4.80776e-07
4.70273e-08
-0.035836
0.0697123
0.175201
0.114126
-6.69759e-08
-2.43045e-08
0.263313
0.227849
0.169608
0.198708
0.158794
-0.0214578
-0.0527811
0.0310308
0.173165
0.162293
0.121392
0.0852817
-1.11845e-05
1.03577e-05
3.82591e-05
4.01251e-05
4.49642e-05
4.04822e-05
-2.87088e-05
-1.4817e-05
-4.8101e-05
-2.85646e-05
-6.40422e-05
-0.056421
-0.042199
-0.120009
0.0979698
-1.99293e-07
-1.7068e-08
-1.47434e-07
7.2103e-08
0.201484
0.245051
0.251981
0.229766
-9.47821e-08
-6.60516e-09
-4.70156e-08
2.90484e-08
-0.00253493
3.41418e-05
-8.52621e-08
-3.45375e-08
8.65246e-08
-9.67615e-08
4.49665e-08
-2.76612e-08
-1.18152e-08
-4.60403e-08
-1.61395e-08
7.21992e-09
-3.34121e-09
-3.43362e-08
-6.27573e-09
-2.91202e-08
9.22428e-09
1.66547e-08
9.15237e-08
-2.28683e-08
1.34248e-08
-2.05798e-10
7.4214e-09
-4.83898e-09
-2.03084e-10
-5.9632e-05
3.35087e-05
-2.67837e-05
-1.28926e-05
-5.62435e-06
-1.35245e-05
1.64991e-06
0.342194
0.3941
0.436667
0.000284176
0.000691459
-0.000128916
0.00055905
0.000433558
-6.93191e-05
1.72451e-07
-2.68661e-06
1.13848e-05
-3.20872e-06
1.63568e-07
-1.81818e-06
3.77269e-06
0.00106554
0.00115675
-0.273349
-0.150016
1.73568e-08
1.09959e-07
1.40594e-07
0.501247
0.000444389
0.0336177
0.0220811
7.94591e-06
0.0522172
0.0900103
0.0417899
0.000148444
0.114175
0.0420462
6.91886e-06
0.0459124
1.21525e-06
3.1495e-06
3.52141e-06
1.04013e-09
0
-0.00161238
0.346076
9.61614e-06
0.493839
0.468994
-1.26858e-06
1.79171e-07
5.75647e-07
0.197611
-6.4628e-05
0.137594
-0.062466
-0.0127424
-1.24322e-07
0.08373
0.0472291
0.0896782
0.00805541
-0.000826649
0.146858
1.16201e-05
9.32212e-06
1.62051e-05
0.145224
1.39214e-05
-3.97044e-06
-3.08383e-08
5.68696e-08
0.0605194
-8.13128e-07
-0.0121212
8.99559e-06
0.0614677
-6.30052e-10
0.00648345
0.00801725
1.68662e-06
1.16576e-05
0.10093
0.042532
0.2235
-1.13849e-06
-1.82771e-06
-6.03342e-07
0.470677
-1.36022e-06
0.428585
-3.55284e-05
-4.54799e-05
-1.91831e-05
0.0963787
5.99667e-06
0.04826
0.0410445
1.67486e-09
-5.32828e-08
-0.167349
-7.77273e-05
0.2285
0.414628
-3.97017e-07
0.479033
-6.88897e-08
0.209048
0
0
0
-2.08512e-06
-5.60926e-07
1.0242e-08
-0.00970487
-0.0110395
0.000821184
0.204258
6.65017e-07
-0.0111063
0.134754
0.17709
0.00315841
-1.09926e-07
-1.97626e-08
0.039175
-1.18981e-08
-0.0496873
1.80856e-09
-0.00288856
-0.197701
0.000841523
3.51017e-09
0.00255923
0.000669304
2.14858e-09
0.13771
-7.61175e-07
-0.00306281
-7.71119e-07
2.02295e-07
-7.70002e-07
-1.64258e-07
0.00135924
2.63209e-08
-0.000754217
1.08016e-07
0.0649945
0.00163729
0.376922
-0.00024423
-0.0136224
-0.00033044
3.9338e-09
-6.34116e-10
-2.35563e-07
0.186629
-0.111097
-0.000392636
2.6798e-10
-2.71798e-08
0.200365
5.93976e-08
-8.24919e-09
0
0.0856795
0
0.000316872
-0.00244116
-0.00713828
1.20127e-08
-2.0607e-06
-6.23958e-06
7.62719e-08
2.22584e-08
5.10262e-08
-0.000161504
-0.000115309
0.199084
0.273042
0
4.26607e-10
-6.10415e-07
0.16206
0.177024
-0.311755
-0.190062
-5.85712e-09
0.0562134
0.401616
-0.000140619
-4.27501e-07
8.64291e-08
0.109953
-2.30208e-07
2.37798e-07
1.03027e-07
-1.2828e-09
3.46447e-07
-0.0248416
-0.0103206
0.187907
-0.323067
0.00767568
0.0723543
3.64236e-10
4.73139e-06
0.437794
-0.119446
3.96979e-05
0.18387
0.169963
-0.28399
0.286234
0.540197
0.470801
0.167765
0.276053
0.117962
1.31648e-07
-6.45818e-05
0.172628
-3.64709e-05
1.20947e-05
-1.53239e-05
0.47378
-7.32537e-05
5.37131e-10
0.00280282
-3.56217e-07
6.04609e-07
0.0244819
-0.322162
-0.415392
8.4826e-08
-5.84102e-05
0.112271
-1.1054e-08
0.473177
-4.58954e-07
2.88823e-07
0.0296114
1.327e-07
2.13712e-05
0.174724
0.110693
9.49796e-06
0.0190032
0.0574007
0.211676
4.05496e-09
-0.00013683
-0.000179602
6.48974e-09
0.000420795
1.38284e-07
0.0236668
0.000442959
1.8299e-05
6.98362e-07
-0.000161061
-3.05866e-06
-0.0016453
-0.000177646
0.000771423
-1.63229e-10
-0.00543472
1.40365e-09
0.000578716
-0.00586395
-0.0102222
-2.17706e-06
0.0236557
0.00511191
0.0713137
0.0680476
3.43322e-09
7.04393e-08
0.488185
0.000113574
0.0674712
7.13503e-08
0.00316994
-2.24645e-06
0.0830041
1.60184e-10
-1.87376e-09
0.26216
-8.49695e-10
-0.000131346
0.260753
-0.000180134
-3.35767e-07
-0.250001
-5.86222e-07
0.222592
7.95456e-07
0.240826
-0.0662193
-0.124616
-7.42572e-08
-0.235345
-1.52444e-07
-0.0609572
2.45661e-07
0.0756336
-0.327076
-0.334238
-3.10025e-07
-2.69479e-09
-1.9377e-09
-1.68136e-08
0.000524201
2.77853e-09
-0.00218904
-0.000399813
-0.000335376
-4.8658e-09
-0.00194324
0.148492
-1.54468e-10
5.87867e-10
0.00350067
2.72114e-08
9.51677e-09
0
0
0.000146698
-1.56805e-08
-0.000132277
-0.000308418
0.000125039
-1.12739e-07
-7.21558e-05
-0.386653
-0.00584677
-8.75356e-10
-0.000140416
-0.000207962
-0.000164606
2.94679e-07
5.29806e-07
-0.131064
0.000832322
0.0177557
6.60992e-07
0.109897
0.0513029
0.117543
-1.93443e-05
0.001573
0.0780265
-0.0732601
3.40077e-06
0.210697
0.0930024
-0.00227319
-0.061117
0.34901
-5.24793e-05
0.419345
0.189731
0.490854
7.15106e-06
5.24819e-06
-1.44428e-07
0.000582126
0.000145116
9.0051e-06
0.0199353
-1.81382e-06
0.0385622
-2.57278e-06
1.03023e-08
0.100169
0.136356
0.00849667
-0.00629039
0.00103041
-0.0576861
0.00854232
2.11689e-05
0.00655632
-7.77753e-07
0.00112147
0.0171403
7.86671e-06
0.0546752
0.464974
0.109798
0.28992
9.43538e-08
-0.0247889
0.0213785
0.0121598
-5.58559e-07
5.11179e-05
-1.17035e-10
0.000230497
-1.37623e-10
-0.000608384
-1.12222e-08
-0.252928
-0.349023
2.33635e-05
0.0772897
2.6859e-07
0.320168
-0.00778847
1.69138e-07
0.0777329
-1.48199e-06
2.59506e-07
4.93214e-07
0.137169
-9.07131e-07
-1.97738e-06
-2.44621e-06
-1.39103e-06
5.48232e-05
-1.51471e-05
0.000233152
0.000161892
0
-5.40372e-06
-0.393014
0
0.000322697
5.43476e-09
3.90763e-09
0.0664851
-0.211334
0
9.14688e-09
-8.54371e-05
4.72828e-07
-9.88613e-05
0.128202
0.249895
0.00118698
-0.000253397
1.04706e-10
-0.374546
-2.13552e-07
-0.204926
0.000817761
-0.319019
0.168581
-2.58077e-09
1.10394e-10
0.296887
0.00359323
0.079232
-8.42069e-09
-0.00402068
0.0867227
-3.2386e-05
0
-0.350896
0.00371641
0.472992
-2.21063e-10
-0.401736
0.00304449
-0.42521
-0.379308
-0.000695686
0
-0.00473549
2.93166e-05
1.21001e-08
7.38742e-10
0.507016
-0.0150836
0
-2.02749e-05
-0.00413723
-2.59934e-06
-3.17683e-06
0.365751
0.408558
0.296797
-7.14015e-09
-1.90158e-08
1.18603e-09
-0.000221008
-6.28832e-05
1.61136e-06
8.20784e-05
-1.01172e-07
-1.78839e-10
-5.93132e-05
-1.46052e-08
0.000226387
-1.34532e-10
0
0.000109501
0.037277
0.00418347
0.000797545
-0.188713
0.000154834
1.26956e-10
-0.00287517
-0.0351586
-0.000185474
0
0.0705999
-7.49004e-07
-0.116376
0.105843
1.18359e-07
0.0854728
2.35942e-09
9.93545e-07
-0.159098
0
0.0673664
8.02172e-07
-6.07839e-07
0.0747767
-2.07268e-09
-0.00543114
-0.00236209
-0.110471
0
3.91114e-08
0.0217564
0.108823
0
6.534e-07
4.75989e-05
0.225454
-3.88395e-06
1.65924e-05
0.0329609
-0.00301941
-0.0526546
0.00279606
0.344556
0.0375587
0.0249219
3.70695e-07
-0.00236628
0.112663
0.055132
-2.43085e-09
0
0.483855
7.34984e-10
0.0987482
0.478778
1.80585e-07
0.000305
0.578025
0.543236
0.160249
0.210608
0.396755
4.2614e-07
-0.0457674
0.00528952
-3.18676e-09
-0.000122785
0.0945396
-0.0183771
0.000106795
0.15953
-0.000687379
-6.7292e-09
0.00306452
0.115578
1.68233e-08
4.78927e-07
9.2779e-07
-4.66863e-10
-4.90552e-10
-1.95248e-06
-0.00174457
0
-0.000152807
0.296668
0.000885579
-0.000215764
1.32304e-07
0.140524
0.332508
-2.906e-07
0.0663782
0.393317
0.0229725
-0.00847912
1.13129e-07
0.230481
-2.79909e-08
-1.26779e-07
4.44499e-07
9.70652e-08
0.0262763
-4.15263e-07
-0.000203204
-0.210233
0.282035
-0.0339731
-0.00295274
0.511885
-4.44251e-07
0.131751
-2.20617e-07
0.162259
-1.38683e-05
-1.28677e-09
0.516053
0.000368655
0.375233
-0.0765039
0.155646
-9.60292e-06
2.05565e-09
0
0.000243682
1.15834e-09
-1.81377e-06
0.10849
-2.89565e-08
-1.94514e-07
0.291362
0
0.052747
1.76665e-09
0.152588
0.227399
-2.22819e-05
-0.00252526
3.57497e-08
0.00576605
-0.000156697
0.322452
-2.19109e-07
-2.58514e-05
0.354956
0.00921024
-0.137895
-0.303483
0.000152286
0.180173
-0.00137543
0
0.0980246
2.93446e-09
2.24888e-09
0.303402
-5.83176e-05
8.80792e-10
-2.63409e-10
-0.000872948
0.0215245
5.92466e-10
0.00452481
-9.70295e-05
0.0628829
0
4.02875e-08
4.9161e-08
-8.25858e-09
0.180322
1.71633e-07
1.44033e-10
0.00141845
-0.300562
-0.000290384
0.141956
0.485887
-4.83513e-10
4.99082e-06
0.00897546
0
0.0758353
-0.150556
2.11505e-06
-9.68089e-09
-1.2107e-10
-2.9648e-08
-0.00128215
0.0062183
3.07126e-07
-0.00140481
5.77348e-09
0.0936044
0.482574
-1.39312e-10
-3.17184e-06
-0.000504714
4.89166e-10
-0.164742
0.000444086
0
-0.00421534
-1.69819e-10
0.232322
-0.164944
0
-0.344764
-0.000181952
4.31202e-07
0
0.000155323
-0.339205
-0.0326493
0.0183014
-0.0424471
0
-0.369973
-0.402315
5.15963e-06
-6.50512e-05
-1.85779e-10
-0.00351988
0.0642333
-0.387253
3.45802e-06
-0.11687
0.000115577
0.000346882
0.112583
-2.08389e-07
-3.49352e-08
-0.000337976
0.000232368
-1.38162e-05
-0.00375709
0.0900968
-0.000117099
-0.154893
0.00166214
1.7506e-06
0.00262691
0.000171202
0
0.00124882
7.08343e-06
-0.339098
-1.3005e-06
-1.87566e-05
-0.13272
-1.93735e-05
0.104298
-5.01921e-07
0.000335233
3.09408e-09
0.382729
1.29033e-06
0.145262
9.1745e-06
-6.17922e-08
-5.25228e-06
0.501763
0.480917
0.0285194
9.5417e-09
-4.40374e-06
-0.312907
1.362e-05
-4.50312e-07
0
-0.381145
-1.45052e-07
0
5.04569e-05
-0.285691
-0.00303094
0.188907
0.327775
0.00376201
0.000199413
-0.0055515
-0.00175656
-0.00347532
0.00314517
-3.64371e-05
0.0385676
-3.46864e-05
0.0113661
-0.147275
0.205025
-0.201783
1.27275e-07
0.15853
-0.000461579
0
-0.00112481
1.97874e-10
5.98674e-05
1.99068e-07
-4.67374e-10
0.152728
0.15952
0.00178467
0.13993
2.39655e-06
-2.19413e-07
0.374519
0.163005
0.157556
0.192986
0.19119
0.294095
3.26931e-08
0.00525249
0.303253
0.314285
0.029294
1.59143e-08
0.000279761
-3.42134e-07
9.69239e-08
-0.00595415
-2.53671e-07
0.0105226
0.31494
-9.16671e-05
-1.87168e-10
-0.000209836
0.0493463
0.119448
0.000246265
0.060012
0.0302663
-0.124331
0.169594
0.117131
0.192258
0.00900078
0.102324
0.141589
-0.0071612
-0.00878878
0.183052
-1.07629e-07
0.316439
-3.95696e-08
0.22532
-0.0476173
0.301949
5.69232e-07
0.000862893
-6.39924e-08
0.0108235
0.32378
0.567797
0.0692195
-0.302196
0.101659
0.0708724
-3.85264e-09
0.0772947
-2.38244e-08
1.80343e-08
0
0
0.255169
0.317236
0.406599
0.166623
0.0260234
-0.013557
0.139819
0.182477
1.90042e-05
0.279414
3.30635e-09
6.23684e-10
2.82736e-09
-0.00559285
2.10791e-09
-2.34229e-09
-6.89627e-08
1.64046e-05
-7.44907e-10
-5.8828e-08
0.041968
0.118704
3.25554e-07
0.191793
-2.31341e-06
0.131421
-1.20199e-08
1.08117e-05
0.0370193
0
0.115483
0
0
0
-0.0304358
0.387378
0.30879
0
0
0.41295
0
0
0.356748
0
0.473086
0
0.447007
0
0.000483529
-2.94541e-07
0.0177573
1.43593e-09
1.8739e-05
-2.66376e-10
0.000322895
-2.11794e-08
2.43768e-05
-4.45978e-06
-0.258117
0.0831943
0.0881251
0.0450691
0.160694
-1.99622e-06
-1.95243e-06
4.69295e-06
0.162564
1.03112e-06
-1.03523e-07
7.07763e-07
-3.47921e-08
0.123444
0.0554789
-0.00055862
0.00264401
0.0654018
9.4226e-08
0.0226727
0.124791
0.00110914
-0.00486108
-2.47011e-05
-0.0845754
0.163054
3.94536e-10
5.10338e-05
3.71419e-09
-9.31348e-07
0.0710459
0.0546991
-4.5681e-08
0.010371
0.216476
-0.390348
0.000298509
-2.5486e-08
3.78776e-07
0.0125829
0.391882
0.485281
0.0105761
-0.000224099
-0.000211952
-5.09951e-06
0.000583649
-7.52645e-07
0.00044757
0.37512
-0.00363035
-1.78455e-07
-3.37199e-07
0.400316
7.94105e-10
-0.27165
6.60255e-10
0.0845391
9.85777e-05
-7.0954e-09
0.00243179
-0.000620283
-0.000814704
0.000146451
2.678e-05
2.33673e-05
-0.060349
1.4119e-09
-0.0505184
-2.402e-07
1.08226e-06
0.118023
0.000785229
-1.7779e-09
0.256614
-0.23432
0.337277
-1.40142e-10
-3.64218e-08
-0.0300074
5.05893e-07
-1.40925e-07
0.0221483
9.5634e-09
0.0611957
1.02288e-07
-2.38981e-07
2.38819e-08
-8.92582e-08
3.43193e-08
0.0012501
0.157863
-0.155355
0.0882502
-7.3159e-05
0.000100428
-0.000158356
-3.71026e-05
0.00780039
-1.80236e-09
-0.000601825
-0.000110444
0.116097
0.041508
0.00163235
0.0576961
1.24049e-07
0.0134138
1.03835e-07
0.0313444
1.64398e-07
0.0204338
-0.12624
0.145349
0.110014
0.141594
0.152169
-7.47304e-07
4.07109e-06
-1.09034e-06
-1.502e-10
0.174564
0.0991852
-0.000161823
0.16037
0.0805606
0.0685281
0.448238
0.000231349
-0.00133623
0.107438
0.0507777
-0.00376269
0.509423
-0.0316751
-4.25597e-10
1.55617e-10
1.18293e-10
0.00386852
0.0169263
0.125624
9.09097e-08
0.153091
0.108541
0.0868055
0.0634914
0.143361
-1.28449e-06
0.271985
0.362736
-0.394681
0.00038182
-0.000590209
0.260943
0.280098
0.145345
-0.0766447
2.16131e-09
-5.25096e-06
2.37446e-05
2.13076e-09
3.28205e-09
4.57309e-09
0.355359
0.332107
0.379597
0.398979
-0.000698506
0.203603
0.202541
0.116584
0.141587
0.185186
-0.0846116
0.34068
0.0851482
0.0829678
0.0458601
0.0586491
-0.161187
-0.204137
7.60921e-05
0.0342949
0.0135445
0
0
0
0
0.000273309
7.57205e-05
-0.000141319
0.451433
4.02258e-07
-4.00439e-09
0.165716
3.17943e-07
9.51331e-07
0.294037
0.508021
-4.63215e-07
9.28437e-07
3.51176e-08
7.12554e-06
-8.48039e-06
-0.151164
1.96998e-06
0.147049
-0.00253547
-0.0988907
-0.000177977
-7.50951e-05
-0.000145068
0.49644
0.151764
-0.0225237
0.0560485
0.0272969
0.152024
3.93942e-09
2.28124e-09
-1.30094e-09
-0.0126311
0.170512
-0.390554
-7.0937e-06
-0.277429
-0.326989
-1.62503e-07
0.135471
-6.51263e-07
9.5563e-06
-1.01082e-06
0.0710395
0.270825
-0.0107426
-0.000537577
-0.0626945
5.09494e-07
-0.0210488
1.09092e-08
-0.0600081
0.197179
0.0807178
0.136135
0.205043
-0.00355562
-0.000126202
0.000299408
0.137892
0.000961847
-0.00462068
-0.217706
-0.00523517
0.0878356
0.0466085
0.192156
1.15708e-06
-0.111352
-0.192087
2.28194e-07
-0.365414
0.202595
1.13888e-07
-3.28908e-07
3.23576e-06
0.149283
0.00773613
0.125689
-2.77266e-08
0.0280158
0.00505892
-5.15597e-09
0.18769
0.0150584
0.144934
0.161854
-1.90789e-06
0.273591
-1.95528e-06
0.188449
-0.000789242
-0.000542221
2.33343e-07
-0.279779
1.68502e-09
-1.70973e-09
0
-9.78538e-05
-0.000104755
0.27267
0.121732
0.347248
0.196856
0.0705741
-0.340085
0.211667
0.00761561
0.0151443
7.0247e-10
0
4.78436e-10
-2.83593e-10
-0.120803
-5.2113e-09
1.09958e-07
5.95358e-08
-0.140729
-0.00231796
0.150183
0.0726906
-3.73486e-07
5.139e-08
0
0
0
0
-0.00013594
0.0592799
0.496047
0.106786
-0.0313652
0.0378836
-4.93427e-06
0.00302936
0.0113579
0.00455363
2.87163e-06
2.85343e-07
2.55836e-06
4.20713e-06
0.437764
1.02661e-05
8.87332e-06
-3.08117e-06
1.2484e-07
-0.00979941
-0.1936
-0.0001076
-0.128047
4.13564e-10
-0.343895
-0.390418
-0.00116144
0.0232872
0.00154803
0.343011
0.184886
0.000230933
0.164493
0.265079
0.235183
0.240297
0
2.58183e-05
6.80371e-06
2.40379e-05
0.473448
0.528435
0.0846573
-0.000112515
-6.34525e-05
0.104718
0.102336
0.0567191
2.42539e-05
-1.58646e-05
-1.48784e-06
5.05767e-06
0.0132344
6.42467e-10
0.0911209
0.23911
-2.08061e-10
1.00499e-08
-1.30019e-10
-2.81713e-07
3.77332e-07
0.0781572
0.0170256
0.005821
0.00235499
-0.000315177
0.000316655
0.00901814
-0.00299613
0.00287009
-0.191618
-1.72442e-09
1.65521e-10
-7.19423e-07
5.59314e-06
-5.17392e-06
1.77836e-06
-0.000221199
0.000377717
-1.94223e-07
-5.69087e-08
-2.56899e-07
-1.26485e-07
0.0698123
0.0976816
0.0967255
-0.187787
0.242908
1.2478e-08
-1.56894e-08
-1.46603e-09
-0.0814754
-0.233025
0.0554279
-0.122673
-0.108477
-4.47201e-10
-1.84443e-08
0.442365
-0.0224422
0.0147877
-1.07242e-10
0
0.0298601
0.0568327
-1.60887e-10
-0.289081
0.423126
0.331149
0.452039
0.0365302
-0.162934
0.206808
0.190718
0.0903771
-3.68635e-05
-0.00024878
-0.000180322
0.507674
0.192227
-0.126772
-0.240977
-0.177856
0.0443155
1.39383e-09
-0.00311592
0.0123221
2.95635e-09
2.51004e-09
0.0129315
-7.5744e-05
-1.97036e-05
0.00125488
2.87838e-09
5.8737e-08
3.78263e-08
8.33752e-08
-0.00401034
-0.131393
-0.149702
-0.0795272
1.35527e-10
3.02226e-10
2.40883e-10
-1.18804e-09
5.11378e-08
0.0883242
-0.0060905
-0.00495104
5.75765e-05
-0.00706678
0.329051
0.429761
0.276599
-7.14994e-05
0.218689
-6.11351e-06
4.60952e-06
1.86738e-05
0.00496931
0.00351833
1.44212e-09
0.0361887
0.0207847
-0.000149817
1.6989e-05
0.518315
2.3022e-09
6.39967e-09
0.172627
0.0881427
0.309656
1.40916e-09
-7.78792e-09
5.04098e-09
2.92345e-09
0.167955
-1.0707e-10
0
0
0
-0.118022
0
-4.80126e-05
-0.0725492
-0.115709
-0.175452
0.0439951
0.155106
0.151784
-0.00405005
0.0132111
0.0053777
2.38262e-10
-9.83564e-10
-7.37841e-10
-0.140194
-0.102856
-0.179751
-0.233935
0.514986
-0.000216591
0.0010018
1.05013e-10
0.000336542
0.000942025
0
0
0
-0.107729
2.1384e-05
1.85837e-08
0.133623
0.234881
0.488983
2.09796e-09
1.25748e-09
2.76089e-09
-0.00422741
0.241218
1.07017e-05
1.04038e-06
-5.79572e-06
-0.0725587
0.133203
0.178679
0.243939
0.0576931
0.0810765
-3.57263e-05
-2.65514e-05
-4.76071e-05
-0.300324
-0.068447
0.0237207
0.0244672
0.0363891
0.0412408
0.214243
0.497463
0.519435
0.000782281
0.0012537
-7.7e-10
0.274111
0.00112171
0.000581579
5.8953e-06
0.0427046
1.81903e-09
-0.000747093
0.000426406
-0.000459383
-0.317473
2.20926e-05
-0.232845
0.379619
-3.13042e-06
6.0931e-07
-2.65159e-06
4.99412e-10
-1.6311e-09
2.85569e-09
0.0833667
0.163854
-0.000715728
-3.47487e-10
-0.000282097
0
-4.51684e-10
0.0693239
0
-2.92512e-10
4.89872e-10
0.101352
0.409455
-5.91024e-05
-4.67598e-05
0.0134539
0.000127012
-0.00311325
-0.0774335
0.299863
-0.017967
-0.243748
0.0418985
1.20907e-08
0.00816068
-0.0521159
-0.13349
0.349644
0.19276
0.0139536
-0.176515
-0.23579
0.147401
0.392586
-1.93847e-10
1.00047e-08
-1.7411e-10
0.011243
0.0566227
0.0030384
-0.000886758
0.032326
0.265107
0.246942
0.249657
0.204143
0.000100511
4.70367e-09
1.24555e-07
0.00104431
0.335751
-0.117618
-0.142309
2.2617e-07
-1.75732e-06
-1.69696e-09
-0.288689
-0.222812
-0.270103
-4.67366e-06
-0.22859
-0.078202
-0.00264122
-0.000647451
-0.0025616
-0.146898
-4.71197e-06
0.00143792
0.000378576
-0.000392086
-0.00225248
-0.00176059
0.000985158
0.00107012
0.181056
-0.000139381
0.336998
-0.000157092
0.338098
0.176192
-4.58616e-05
0.24064
-2.63348e-05