# vtk DataFile Version 2.0
Unstructured Grid by M++
ASCII
DATASET UNSTRUCTURED_GRID
POINTS 4072 float
  0.828125   0.890625 0
  0.875000   0.531250 0
  0.828125   0.750000 0
  0.593750   0.968750 0
  0.828125   0.671875 0
  0.828125   0.875000 0
  0.593750   0.937500 0
  0.828125   0.656250 0
  0.828125   0.640625 0
  0.828125   0.843750 0
  0.593750   0.906250 0
  0.828125   0.625000 0
  0.781250   0.968750 0
  0.828125   0.609375 0
  0.828125   0.812500 0
  0.593750   0.875000 0
  0.593750   0.828125 0
  0.593750   0.796875 0
  0.828125   0.703125 0
  0.593750   0.765625 0
  0.828125   0.937500 0
  0.812500   0.875000 0
  0.859375   0.515625 0
  0.812500   0.734375 0
  0.812500   0.937500 0
  0.578125   1.000000 0
  0.578125   0.750000 0
  0.812500   0.687500 0
  0.578125   0.953125 0
  0.812500   0.656250 0
  0.812500   0.859375 0
  0.578125   0.921875 0
  0.812500   0.828125 0
  0.578125   0.890625 0
  0.812500   0.593750 0
  0.812500   0.796875 0
  0.578125   0.859375 0
  0.578125   0.812500 0
  0.578125   0.781250 0
  0.796875   1.000000 0
  0.796875   0.859375 0
  0.796875   0.718750 0
  0.562500   0.984375 0
  0.562500   0.937500 0
  0.796875   0.843750 0
  0.562500   0.906250 0
  0.796875   0.812500 0
  0.562500   0.875000 0
  0.796875   0.578125 0
  0.796875   0.781250 0
  0.562500   0.843750 0
  0.812500   0.984375 0
  0.562500   0.796875 0
  0.812500   0.953125 0
  0.562500   0.765625 0
  0.796875   0.937500 0
  0.546875   0.750000 0
  0.781250   0.984375 0
  0.828125   0.593750 0
  0.781250   0.843750 0
  0.781250   0.937500 0
  0.546875   1.000000 0
  0.781250   0.703125 0
  0.546875   0.968750 0
  0.546875   0.921875 0
  0.781250   0.828125 0
  0.546875   0.890625 0
  0.781250   0.796875 0
  0.546875   0.859375 0
  0.781250   0.562500 0
  0.781250   0.765625 0
  0.546875   0.828125 0
  0.796875   0.968750 0
  0.546875   0.781250 0
  0.765625   1.000000 0
  0.765625   0.968750 0
  0.531250   0.984375 0
  0.765625   0.687500 0
  0.531250   0.953125 0
  0.531250   0.937500 0
  0.531250   0.906250 0
  0.765625   0.812500 0
  0.531250   0.875000 0
  0.765625   0.781250 0
  0.531250   0.843750 0
  0.781250   1.000000 0
  0.765625   0.546875 0
  0.765625   0.750000 0
  0.531250   0.812500 0
  0.781250   0.953125 0
  0.531250   0.765625 0
  0.515625   0.750000 0
  0.750000   0.984375 0
  0.750000   0.953125 0
  0.796875   0.593750 0
  0.796875   0.562500 0
  0.750000   0.843750 0
  0.750000   0.937500 0
  0.515625   1.000000 0
  0.750000   0.906250 0
  0.515625   0.968750 0
  0.750000   0.671875 0
  0.750000   0.875000 0
  0.515625   0.937500 0
  0.515625   0.921875 0
  0.515625   0.890625 0
  0.750000   0.796875 0
  0.515625   0.859375 0
  0.750000   0.765625 0
  0.515625   0.828125 0
  1.000000   0.718750 0
  0.750000   0.531250 0
  0.750000   0.734375 0
  0.515625   0.796875 0
  0.734375   1.000000 0
  0.734375   0.968750 0
  0.734375   0.937500 0
  0.781250   0.578125 0
  0.781250   0.546875 0
  0.968750   0.578125 0
  0.734375   0.828125 0
  0.968750   0.546875 0
  0.734375   0.796875 0
  0.734375   0.765625 0
  0.968750   0.671875 0
  0.734375   0.734375 0
  0.968750   0.640625 0
  0.734375   0.703125 0
  0.968750   0.609375 0
  0.734375   0.671875 0
  0.734375   0.656250 0
  0.734375   0.625000 0
  0.968750   0.531250 0
  0.734375   0.593750 0
  0.984375   0.734375 0
  0.984375   0.703125 0
  0.734375   0.515625 0
  0.718750   0.984375 0
  0.718750   0.953125 0
  0.718750   0.921875 0
  0.953125   0.562500 0
  0.718750   0.812500 0
  0.953125   0.531250 0
  0.718750   0.781250 0
  0.718750   0.750000 0
  0.953125   0.656250 0
  0.718750   0.718750 0
  0.953125   0.625000 0
  0.718750   0.687500 0
  0.953125   0.593750 0
  0.718750   0.656250 0
  0.671875   1.000000 0
  0.718750   0.640625 0
  0.718750   0.609375 0
  0.953125   0.515625 0
  0.718750   0.578125 0
  0.968750   0.718750 0
  0.968750   0.687500 0
  0.953125   0.671875 0
  0.703125   0.968750 0
  0.703125   0.937500 0
  0.937500   0.656250 0
  0.703125   0.906250 0
  0.937500   0.546875 0
  0.703125   0.796875 0
  0.937500   0.515625 0
  0.703125   0.765625 0
  0.937500   0.671875 0
  0.703125   0.734375 0
  0.937500   0.640625 0
  0.703125   0.703125 0
  0.937500   0.609375 0
  0.703125   0.671875 0
  0.937500   0.578125 0
  0.703125   0.640625 0
  0.656250   0.984375 0
  0.703125   0.625000 0
  0.703125   0.593750 0
  0.718750   0.796875 0
  0.953125   0.734375 0
  0.812500   1.000000 0
  0.859375   0.656250 0
  0.703125   0.781250 0
  0.937500   0.718750 0
  0.953125   0.703125 0
  0.796875   0.984375 0
  0.843750   0.640625 0
  0.812500   0.968750 0
  0.859375   0.625000 0
  0.796875   0.953125 0
  0.843750   0.609375 0
  0.687500   0.953125 0
  0.687500   0.921875 0
  0.687500   0.890625 0
  0.921875   0.734375 0
  0.687500   0.796875 0
  0.687500   0.781250 0
  0.921875   0.703125 0
  0.687500   0.765625 0
  0.687500   0.750000 0
  0.921875   0.656250 0
  0.687500   0.718750 0
  0.921875   0.625000 0
  0.687500   0.687500 0
  0.921875   0.593750 0
  0.687500   0.656250 0
  0.640625   1.000000 0
  0.921875   0.562500 0
  0.687500   0.625000 0
  0.640625   0.968750 0
  0.687500   0.609375 0
  0.687500   0.578125 0
  0.937500   0.687500 0
  0.921875   0.671875 0
  0.671875   0.921875 0
  0.906250   0.656250 0
  0.671875   0.906250 0
  0.671875   0.875000 0
  0.906250   0.718750 0
  0.671875   0.781250 0
  0.671875   0.765625 0
  0.671875   0.734375 0
  0.906250   0.640625 0
  0.671875   0.703125 0
  0.906250   0.609375 0
  0.671875   0.671875 0
  0.906250   0.578125 0
  0.671875   0.640625 0
  0.625000   0.984375 0
  0.671875   0.609375 0
  0.625000   0.953125 0
  0.671875   0.593750 0
  0.671875   0.562500 0
  0.765625   0.953125 0
  0.812500   0.609375 0
  0.656250   1.000000 0
  0.656250   0.953125 0
  0.656250   0.906250 0
  0.890625   0.640625 0
  0.656250   0.890625 0
  0.656250   0.859375 0
  0.890625   0.734375 0
  0.656250   0.796875 0
  0.812500   0.921875 0
  0.562500   1.000000 0
  0.625000   0.828125 0
  0.812500   0.843750 0
  0.843750   0.593750 0
  0.812500   0.812500 0
  0.625000   0.718750 0
  0.828125   0.687500 0
  0.640625   0.593750 0
  0.812500   0.781250 0
  0.625000   0.687500 0
  0.765625   0.828125 0
  0.640625   0.562500 0
  0.812500   0.750000 0
  0.562500   0.828125 0
  0.781250   0.875000 0
  0.546875   0.937500 0
  0.781250   0.671875 0
  0.781250   0.593750 0
  0.546875   0.656250 0
  0.796875   0.750000 0
  0.562500   0.812500 0
  0.796875   0.546875 0
  0.765625   0.796875 0
  0.765625   0.593750 0
  1.000000   0.531250 0
  0.812500   0.718750 0
  0.859375   0.562500 0
  0.625000   0.625000 0
  0.812500   0.703125 0
  0.812500   0.906250 0
  0.578125   0.968750 0
  0.984375   0.593750 0
  0.828125   0.578125 0
  0.828125   0.781250 0
  0.593750   0.843750 0
  0.812500   0.671875 0
  0.625000   0.578125 0
  0.796875   0.671875 0
  0.562500   0.734375 0
  0.984375   0.562500 0
  0.828125   0.546875 0
  0.812500   0.640625 0
  0.750000   0.812500 0
  0.625000   0.546875 0
  0.796875   0.640625 0
  0.562500   0.703125 0
  0.828125   0.515625 0
  0.781250   0.734375 0
  0.546875   0.796875 0
  0.781250   0.531250 0
  0.750000   0.781250 0
  0.625000   0.515625 0
  0.796875   0.609375 0
  0.562500   0.671875 0
  0.765625   0.656250 0
  0.765625   0.859375 0
  0.531250   0.921875 0
  0.812500   0.578125 0
  0.562500   0.656250 0
  0.984375   0.687500 0
  0.750000   0.750000 0
  0.812500   0.562500 0
  0.812500   0.765625 0
  0.578125   0.828125 0
  0.562500   0.625000 0
  0.984375   0.656250 0
  0.750000   0.718750 0
  0.812500   0.531250 0
  0.781250   0.656250 0
  0.546875   0.718750 0
  0.781250   0.625000 0
  0.546875   0.687500 0
  0.750000   0.640625 0
  0.796875   0.531250 0
  0.562500   0.593750 0
  0.984375   0.625000 0
  0.750000   0.687500 0
  0.546875   0.984375 0
  0.609375   0.812500 0
  0.796875   0.875000 0
  0.546875   0.953125 0
  0.609375   0.578125 0
  0.843750   0.515625 0
  0.765625   0.515625 0
  0.765625   0.718750 0
  0.531250   0.781250 0
  0.984375   0.546875 0
  0.750000   0.609375 0
  0.796875   0.828125 0
  0.671875   0.968750 0
  0.796875   0.796875 0
  0.796875   0.765625 0
  0.609375   0.671875 0
  0.796875   0.734375 0
  0.546875   0.812500 0
  0.796875   0.703125 0
  0.843750   0.546875 0
  0.609375   0.609375 0
  0.796875   0.687500 0
  0.562500   0.953125 0
  0.796875   0.656250 0
  0.609375   0.562500 0
  0.796875   0.625000 0
  0.609375   0.531250 0
  0.546875   0.640625 0
  0.765625   0.671875 0
  0.531250   0.734375 0
  0.796875   0.515625 0
  0.765625   0.640625 0
  0.531250   0.703125 0
  0.703125   1.000000 0
  0.765625   0.609375 0
  0.531250   0.671875 0
  0.765625   0.578125 0
  0.531250   0.640625 0
  0.546875   0.609375 0
  0.531250   1.000000 0
  0.890625   0.593750 0
  0.656250   0.656250 0
  0.781250   0.515625 0
  0.546875   0.578125 0
  0.531250   0.968750 0
  0.890625   0.562500 0
  0.656250   0.625000 0
  0.609375   0.968750 0
  0.781250   0.859375 0
  0.656250   0.593750 0
  0.750000   0.703125 0
  0.515625   0.765625 0
  0.781250   0.812500 0
  0.781250   0.781250 0
  0.593750   0.687500 0
  0.781250   0.750000 0
  0.593750   0.656250 0
  0.781250   0.718750 0
  0.531250   0.796875 0
  0.828125   0.562500 0
  0.593750   0.625000 0
  0.781250   0.687500 0
  0.828125   0.531250 0
  0.593750   0.593750 0
  0.812500   0.625000 0
  0.578125   0.687500 0
  0.781250   0.640625 0
  0.781250   0.609375 0
  0.593750   0.515625 0
  0.515625   0.781250 0
  0.812500   0.546875 0
  0.578125   0.609375 0
  0.812500   0.515625 0
  0.578125   0.578125 0
  0.750000   0.656250 0
  0.515625   0.718750 0
  0.750000   0.625000 0
  0.515625   0.687500 0
  0.687500   0.984375 0
  0.750000   0.593750 0
  0.515625   0.656250 0
  0.531250   0.546875 0
  0.750000   0.562500 0
  0.515625   0.625000 0
  0.531250   0.515625 0
  0.984375   0.515625 0
  0.750000   0.578125 0
  0.515625   0.531250 0
  0.828125   0.796875 0
  0.640625   0.703125 0
  0.828125   0.765625 0
[...]
CELL_DATA 7648
SCALARS scalar_value float 1
LOOKUP_TABLE default
-3.53861e-07
-4.89449e-07
1.47985e-10
-6.47824e-09
-7.44241e-10
-9.30388e-10
-0.0937563
-0.00662034
0.013857
0.108539
-0.0129472
0.00383
0.152379
-0.163513
0.161435
0.147894
0.142819
-0.0604839
0.0938478
0.0637156
0.0814441
0.074621
0.0489221
0.02607
0.00392763
0.00198174
0.00240655
0.000558317
0.00144003
0.000708921
0.000842349
0.000202305
-9.63262e-08
-2.84626e-08
-1.71729e-07
2.0193e-08
0.209066
0.134211
5.28334e-07
-2.12037e-07
-0.315739
-0.251258
0.000916857
0.000963796
1.5501e-07
-6.9561e-08
-4.14342e-07
-6.40065e-07
1.00609e-06
5.33261e-07
-3.64806e-06
-1.56146e-06
1.39167e-06
1.02967e-06
-1.53142e-06
-1.88093e-06
0.147334
0.185757
0.134312
0.160392
0.115159
0.0715379
-3.41275e-05
5.55902e-05
-4.95748e-05
0.000167742
-0.000127491
-0.000155208
4.3622e-05
4.14649e-05
-9.03955e-07
-4.21087e-06
-5.64774e-06
0.111137
0.00408976
-8.9068e-09
5.90469e-08
5.9989e-09
1.01707e-08
-2.70054e-08
-1.41822e-08
1.13015e-08
-8.62601e-08
1.99551e-07
7.58828e-08
8.02516e-09
-1.81086e-08
4.18943e-07
2.55295e-07
1.00408e-07
-6.15571e-05
0.00014052
0.000127209
-0.000143286
-0.000266071
0.000117231
-0.000349586
0.000193068
0.00050938
1.83291e-05
-4.17927e-05
-0.000159158
0.000164886
-0.000110226
0.0488859
0
-1.97547e-10
-1.7819e-10
3.21994e-09
1.72582e-09
2.72525e-09
2.07341e-10
-5.27651e-08
-1.26924e-08
-7.67651e-08
1.65077e-08
-4.70666e-09
-5.6291e-09
1.16696e-09
0.238695
0.158191
0.101944
0.0437188
-0.0928303
-0.161822
-0.0797788
-0.315737
2.63617e-09
8.86519e-10
3.89784e-09
-1.21929e-09
2.77657e-09
4.55318e-10
2.29517e-09
-7.87844e-10
0.0605938
0.033423
-0.0549732
0.094336
-0.389732
-1.14329e-10
0
-9.65124e-05
1.2336e-05
-0.000283888
-0.000712785
-0.000397972
-9.79773e-05
0.107752
0.111707
0.119232
9.67051e-05
1.55813e-05
7.64728e-05
-3.16882e-05
9.04581e-06
5.37161e-06
7.70465e-06
7.66075e-06
-0.000177406
3.75042e-05
-0.299315
-0.315061
-0.0922658
-0.435975
0.00233441
-0.37044
-0.291372
-0.263643
-0.238287
6.18572e-10
0
0
0
2.19706e-08
4.50604e-09
0.11503
0.0401611
0.00956869
0.0110677
-0.0282248
-0.00525795
-0.009887
-0.0039938
7.98497e-05
3.95746e-05
-0.000253239
5.04099e-05
3.14282e-05
8.56676e-06
-0.000109556
0.00122933
0.000112938
-0.00355903
0.000784774
-0.00294554
0.00215065
-2.61612e-08
-7.21086e-09
-1.6753e-08
6.14405e-09
-0.136085
-0.0561682
0.068758
0.0304856
6.2044e-08
1.9636e-08
0.277875
0.262779
0.386335
0.148475
0.289488
0.202364
0.0550687
0.309434
0.19223
0.261621
0.329564
0.24277
5.11448e-06
-3.07814e-06
-1.29838e-05
-1.55686e-05
9.32727e-07
-0.000134293
-7.67881e-05
1.11857e-05
0.0001019
3.369e-05
0.000117268
-0.200294
-0.211951
-0.280253
-0.0832241
1.52883e-08
2.62962e-10
1.4017e-08
-7.48837e-09
0.203544
0.241573
0.166238
0.336346
1.12765e-08
0
7.52535e-09
-4.99782e-09
-0.00012243
-0.000105071
-1.01366e-08
-4.13845e-09
5.04048e-09
-7.49254e-09
2.00756e-09
-2.15258e-09
-6.84355e-10
-2.56737e-09
-5.37341e-10
5.94535e-10
1.30892e-10
2.76123e-09
5.71151e-10
3.00389e-09
-8.90174e-10
-1.06693e-09
-7.60081e-09
3.85313e-10
-1.07216e-09
0
-8.92894e-10
5.40143e-10
0
2.82228e-05
-2.09472e-05
-0.000116687
8.86848e-06
2.39421e-06
9.8152e-06
-3.39163e-06
0.0612043
0.057387
0.0570794
1.17639e-05
4.15916e-05
-1.5305e-05
2.87937e-05
1.91458e-05
-6.38786e-06
2.31282e-06
1.22497e-06
2.28579e-06
-1.12652e-08
5.43505e-08
-1.49413e-09
1.46555e-07
0.000942724
0.000512895
-0.212339
-0.18755
2.30203e-08
1.33491e-07
1.36129e-07
0.153611
2.11802e-05
0.122988
0.0987133
-4.96245e-05
0.108723
0.126207
0.133037
-5.88163e-05
0.201224
0.24672
-3.26875e-06
0.166799
-1.68795e-06
-2.18048e-06
-7.22745e-06
0
0
-6.37613e-05
0.0289834
4.06366e-06
0.168158
0.0997238
-7.26784e-07
1.92766e-08
2.03796e-07
0.0792119
1.90829e-05
0.0100255
-0.25813
-0.360468
3.02934e-07
0.131183
0.152152
0.229568
0.122063
-0.000409579
0.168969
7.80349e-07
5.20459e-07
1.56118e-06
0.00580448
1.12004e-06
-5.25338e-07
1.82236e-07
1.7243e-07
0.00163972
-1.78757e-06
-0.408926
-4.64185e-06
0.178301
2.27456e-10
0.00445001
0.000183559
1.13343e-06
1.60436e-06
0.00349658
0.000976618
0.308053
-1.85244e-06
-1.00329e-06
-3.05596e-07
0.169128
-1.82137e-07
0.0508868
2.00616e-05
2.64163e-05
1.66248e-05
-0.00363973
2.50522e-07
0.00120203
0.00107996
0
-1.1453e-07
0.0682994
5.23614e-06
0.313562
0.231013
-2.7219e-06
0.156559
0
0.321703
0
0
0
-7.11394e-07
1.11311e-07
8.66899e-08
-0.0026573
-0.00233897
0.000662859
0.0290724
1.92933e-07
-0.00185001
0.059832
0.0496245
-0.00103998
5.39273e-08
3.00469e-08
0.344375
3.20402e-09
0.305505
-8.6822e-10
-0.00210674
0.181901
-1.37946e-05
5.83876e-10
0.315844
0.000972425
-1.67703e-09
0.00677212
-3.63113e-08
-0.000199204
-3.55894e-08
2.08979e-08
-8.29182e-07
5.24426e-09
-0.000276149
-1.44762e-08
-0.0454707
9.92486e-09
0.00196513
-0.00155559
0.241352
-0.00412207
0.00308055
-8.17643e-05
7.05625e-09
-1.31558e-09
9.87211e-08
0.011797
0.0806786
-9.3545e-05
0
1.252e-08
0.0388967
-5.25974e-08
-2.78748e-08
0
-0.324122
0
1.41395e-05
-0.000221764
-0.00245848
-3.25352e-09
-4.20036e-07
-1.31816e-06
4.67436e-09
3.28986e-09
2.63219e-09
-0.000264869
-0.000142441
0.219901
0.295109
0
0
1.07955e-05
0.357689
0.266446
0.460538
0.272885
4.4691e-09
0.030459
0.0388449
-0.000125846
1.13531e-08
-1.5285e-08
0.157185
6.74218e-09
-1.67443e-08
-1.8894e-08
5.17856e-09
-1.96474e-08
0.0663417
-0.161264
0.0438574
0.455438
0.000119466
0.00342412
0
2.11695e-07
0.223916
0.44001
-0.000163317
0.126499
0.115665
0.418242
-0.125205
0.142222
0.168561
0.00907328
0.0192653
0.00501222
-1.04975e-08
2.45494e-05
0.00971382
8.73555e-06
1.45996e-05
1.78979e-05
0.0531722
-0.000134815
0
-0.00711461
7.29405e-09
9.28023e-08
0.0623266
0.559661
0.52127
-1.63798e-07
-0.000120107
0.0241337
8.02262e-09
0.083698
-1.12865e-08
2.97572e-08
0.000570196
4.73295e-08
3.13932e-06
0.00916144
0.00492625
3.16932e-06
0.000350788
0.00169606
0.0119418
-1.90353e-10
0.000506767
-0.00107822
2.82293e-10
0.000128891
-3.55494e-08
0.000502699
0.000425923
-9.39197e-06
2.26553e-07
-2.24203e-05
3.07209e-06
-0.000397788
1.63828e-06
0.00018833
0
-0.000503532
0
0.000124135
-0.000658332
-0.00136712
-4.93852e-08
0.0258276
-0.000654607
0.0987323
0.161828
-6.11054e-08
5.45718e-09
0.0863252
-0.000108644
0.153198
-1.29233e-08
-0.01063
-6.71632e-07
0.00427008
1.11911e-09
-5.4351e-09
0.0156362
-4.28234e-09
-2.94187e-05
0.0644766
-7.91791e-05
2.29732e-07
0.521346
-1.24374e-06
0.325243
1.37309e-07
0.296022
0.294793
0.316108
-9.01699e-08
0.403319
5.06352e-07
0.191585
-4.05803e-07
0.314794
0.464437
0.474113
-6.9645e-09
-4.79854e-09
-7.63932e-10
-2.60708e-09
-0.00105609
8.80503e-10
-0.00225023
0.000948885
7.07258e-05
-2.35086e-10
-0.00140366
-0.401309
0
3.51139e-09
0.00633591
1.42943e-08
1.80499e-09
0
0
-0.00158492
2.10405e-08
-2.22296e-05
-0.000606481
-0.000344122
6.45158e-07
-6.98994e-06
0.538404
-0.000798353
-2.83862e-10
-5.53388e-06
-4.33653e-05
-0.000103076
3.33091e-08
-2.80879e-09
-0.328314
0.000659068
0.00661017
8.48141e-09
0.00634141
0.00137253
0.0107523
2.19421e-05
0.00572977
-0.415296
0.422604
-2.20447e-06
0.0608797
0.341025
0.00304829
0.379123
0.0314459
2.61258e-05
0.219703
0.170093
0.142357
3.31186e-07
2.01495e-07
-4.79751e-08
-1.55684e-05
2.89083e-05
6.96673e-07
0.000595813
-2.03021e-07
0.00114122
-3.26427e-07
-2.49745e-08
0.00388714
0.00544737
-0.0164233
0.00661651
0.00110192
0.181046
-0.0194887
1.21075e-05
0.000129306
-1.59324e-07
4.75555e-06
0.253736
5.90647e-05
0.177761
0.0620151
0.113577
-0.341317
-3.3293e-08
0.0256894
0.000529367
0.000254032
-9.4602e-08
-6.33909e-05
0
2.28291e-05
0
-0.000224706
-2.30119e-08
-0.202724
0.52471
4.77981e-06
0.274266
2.78057e-07
0.0338707
-0.0100286
2.41016e-07
0.00173435
1.07394e-06
1.20641e-07
-7.99295e-08
-0.42645
1.38509e-07
-1.31829e-06
-1.24165e-06
-1.65778e-06
1.00023e-06
-8.33631e-07
7.55831e-06
4.49867e-06
0
5.61997e-08
0.531234
0
1.22294e-05
-4.51097e-08
-5.52865e-09
0.00317271
0.430664
0
-3.08733e-10
-9.49492e-06
3.58201e-07
-1.27788e-05
0.00640844
0.0201528
0.00499239
0.000146815
0
0.530868
2.66068e-07
0.468712
5.76272e-05
0.497523
0.142821
4.55032e-09
1.68731e-10
-0.0544013
-0.013606
0.0673787
-7.31069e-09
-0.00627961
0.00335919
-2.3777e-06
0
0.529782
0.00147954
0.0838228
0
0.536427
0.00254228
0.574404
0.545692
-0.000368587
0
-0.000364888
-4.51077e-05
1.78714e-09
0
0.108361
0.253605
0
0.000212061
-0.00123335
-8.36546e-07
6.4694e-07
0.113186
0.132447
-0.339649
1.68238e-09
-5.1921e-08
0
-3.95391e-05
0.000698135
-1.02287e-06
1.77883e-06
-5.79161e-08
0
8.68797e-06
1.00851e-08
-4.69698e-05
0
0
-0.000325179
0.00134017
-0.00561482
9.09217e-05
0.0382603
-0.000286711
4.46741e-10
0.00414592
0.093495
0.000144344
-1.67384e-10
-0.114785
-4.09547e-09
0.273708
0.00400106
-2.11459e-08
0.00312763
3.73789e-10
1.61049e-07
0.445751
0
0.41501
3.94234e-08
6.91318e-09
0.00236868
0
-0.00665481
0.00129601
-0.210306
0
-7.15998e-10
0.0699521
0.0119177
0
1.05827e-07
-1.04149e-05
0.303521
2.73513e-06
1.33778e-06
0.000745546
-0.000784783
0.0578678
-0.0185507
0.0419489
0.0322561
-0.000654476
9.04251e-08
0.00240915
0.0062413
0.233068
1.03759e-09
0
0.157064
0
0.18748
0.17185
1.91262e-07
0.000221551
0.114004
0.0800083
0.0319741
-0.241694
0.235304
3.40959e-07
-0.104835
-0.00365864
2.25692e-09
-1.2307e-05
0.193562
0.0178986
2.50571e-06
0.106465
0.00148294
2.22297e-10
3.6827e-05
0.00518168
4.70842e-09
3.59046e-07
-5.98508e-07
0
0
1.34201e-06
-0.00466873
0
-2.85421e-05
0.246829
-0.000473661
-7.34904e-05
3.55433e-07
0.0130902
0.217587
2.13551e-09
0.0023467
0.264118
0.0295625
0.161662
-7.96658e-08
0.185815
2.90282e-10
-3.293e-08
-1.87297e-08
1.05035e-07
0.332792
1.68721e-08
0.00125982
0.481873
0.0193954
-0.216632
0.00117058
0.134979
2.38936e-07
0.313304
2.13552e-07
0.0505433
-3.16912e-06
-1.2731e-09
0.115672
-0.000318107
0.238677
0.156226
0.0987864
7.87243e-06
-1.12659e-09
0
9.12115e-06
0
-3.71068e-07
0.22292
-1.17303e-10
-1.48406e-06
0.304409
0
0.00137565
-2.46405e-10
0.0120401
0.0720869
-1.42383e-06
-0.00803885
-2.29755e-08
-0.00932921
-0.000353871
-0.279478
-5.25457e-09
-4.52719e-05
0.0354355
-0.000953283
0.477011
0.542532
7.53941e-05
0.13274
0.0023539
0
0.189746
7.5277e-10
0
-0.0532031
-0.000703236
0
0
-2.45308e-05
0.000862656
1.67663e-09
5.45329e-05
-1.00635e-05
-0.000503526
0
-5.25899e-08
-2.31387e-08
4.11348e-09
0.359221
-1.55582e-07
0
8.81053e-06
0.514228
-2.48993e-05
0.0064585
0.11258
0
2.84077e-07
0.00022418
0
0.00247182
0.501525
-2.80492e-06
-1.822e-08
0
-6.30973e-10
-0.0030339
-0.000587255
5.46789e-08
0.00418923
-2.72421e-09
0.391476
0.0693932
0
3.19271e-06
0.000982929
0
0.369337
0.00125908
1.5864e-10
-0.0152332
0
0.0181668
0.477769
0
0.513187
-2.67076e-05
-2.42614e-08
0
4.52753e-06
0.534878
0.0975881
0.000232011
0.445894
0
0.528327
0.572844
5.99659e-07
-0.000117918
0
-0.00283098
0.0380545
0.512554
-1.77671e-06
0.335473
2.91779e-06
1.48602e-05
0.00401961
-4.64125e-09
1.77208e-09
0.0015149
0.000108198
-6.007e-07
-0.00491076
0.00325253
-0.00108394
0.379458
0.00541235
1.84103e-06
0.404584
-0.00119644
0
0.00169362
4.29357e-07
0.501996
9.12038e-07
-0.000122669
0.392674
-9.81438e-07
-0.0247117
-3.86267e-08
-0.000176919
-6.2469e-10
0.241241
-7.01308e-07
0.14766
-3.34087e-06
-5.08662e-08
-7.72642e-07
0.0987074
0.169442
0.00061224
9.96712e-10
1.76884e-09
0.508768
1.05129e-06
2.59865e-07
0
0.571092
-7.89339e-09
0
2.94002e-06
0.517236
-0.000959656
0.101156
0.0436005
6.76374e-05
6.63067e-06
0.00500516
-0.0100951
-0.0102265
0.00297531
1.56955e-05
0.202577
-1.23018e-05
0.129482
0.236612
0.0304739
0.479383
-1.31075e-09
0.00735746
7.87591e-05
0
-0.00324022
0
0.000257353
1.76954e-08
1.22733e-09
0.213886
-0.0624478
0.00240851
0.0804549
6.43157e-08
-8.14142e-09
0.0437495
0.00774639
0.00834067
0.010709
0.00977607
0.0300808
-9.80943e-09
0.0871411
0.0260975
0.024671
0.0017196
2.4492e-10
0.00101469
-2.27589e-08
-1.82079e-09
0.00581988
7.15921e-09
-0.0185616
-0.22214
0.000344267
0
0.000741297
0.00122579
0.00472779
0.000946731
0.00185266
0.00216216
0.412491
0.0144151
0.0105952
0.0208521
0.000210574
0.00735613
0.00963463
-0.00065111
-0.000961792
0.108938
7.14511e-09
-0.100942
-9.68543e-09
0.0153694
0.0331706
0.0249964
-3.20011e-06
0.00102949
2.94184e-07
0.0124082
0.049063
0.157121
0.274745
0.529546
0.00356069
0.00208287
-2.62927e-10
0.00238139
-3.12632e-09
-7.06949e-10
0
0
-0.191483
-0.318327
0.0597844
-0.34522
0.0012592
0.267603
0.144769
0.0376626
2.29345e-06
0.0199494
2.01457e-10
1.40915e-09
1.35907e-10
-0.00042724
1.07062e-09
2.17924e-09
3.65936e-08
1.57426e-06
-1.52399e-10
3.39362e-08
-0.0392763
0.00485782
-2.04873e-07
0.0249849
1.24059e-06
0.129579
1.83429e-08
6.76413e-07
0.000806832
0
0.365185
0
0
0
0.445466
0.22765
0.279834
0
0
0.210031
0
0
0.274761
0
0.199369
0
0.20164
0
0.00122714
-3.31075e-07
-0.0663665
0
-0.000872451
0
0.000138554
-2.86078e-08
0.000423255
3.72836e-06
0.488847
0.00420114
0.264307
-9.43567e-05
0.0720662
-3.09699e-07
-2.48973e-07
2.90857e-07
0.00695715
1.70343e-07
-3.67029e-09
1.17944e-07
-6.91767e-09
0.00540396
0.00152256
1.87121e-05
-0.00189929
0.00196276
2.9133e-08
0.000389223
0.0193108
0.000390667
0.00609543
-5.75888e-05
-0.235721
-0.0954473
-2.6557e-10
-0.00140392
-4.4948e-10
5.89732e-07
0.196202
0.107369
2.88346e-08
0.00327443
0.0125074
0.550971
0.00148205
-4.56298e-09
7.46357e-08
0.395469
0.222804
0.0743231
0.174782
-7.64035e-05
-8.51142e-05
2.07462e-06
-0.000394322
-3.61089e-07
0.00108635
0.231464
0.00428824
-7.8061e-09
-9.84868e-09
0.269313
-1.1277e-09
0.498402
5.65421e-09
0.00491678
0.000284174
4.87652e-10
-0.00205966
0.00125224
-0.00524096
5.77381e-05
-1.49962e-05
-1.23743e-05
0.335243
-4.32913e-10
0.377847
1.38494e-08
1.96433e-08
0.00516667
0.000406774
3.49155e-10
0.33304
0.521596
-0.136986
0
-8.77058e-09
0.336872
-1.264e-08
-2.57778e-09
0.00224179
-8.27211e-09
0.00161704
-6.04218e-09
-1.31905e-08
8.06848e-10
-1.27567e-09
1.44914e-09
-0.00097507
-0.016655
0.385851
0.0282505
-0.000111792
-1.76469e-05
-4.63071e-05
-3.94888e-05
0.026149
7.05806e-09
-1.4352e-05
1.42316e-06
0.00449242
0.000951974
2.23525e-05
0.0015942
6.84534e-09
0.000181601
1.16386e-08
0.000682839
1.3173e-08
0.000331737
0.453353
0.00661992
0.00403547
0.00596197
0.00670533
-6.40855e-08
1.55689e-07
-1.01953e-07
6.17883e-10
0.0857958
0.394628
-0.000183606
0.0921252
0.375737
0.370021
0.0548964
0.000967032
-0.00131065
0.00817851
-0.00255343
-0.0154851
0.0980673
-0.0132441
-8.24588e-10
7.1755e-10
1.87557e-10
0.00282927
0.392302
0.295075
-5.02567e-08
-0.19267
0.171085
-0.0276513
-0.250408
0.00752134
5.86931e-06
0.019689
0.0281931
0.534112
-0.000122816
0.000820576
0.0176087
-0.0266248
0.138393
0.313117
-2.13912e-09
-1.44179e-06
1.23827e-05
1.11036e-09
3.55543e-10
5.74456e-10
0.0392331
0.0274132
0.0379562
0.042228
0.000816087
-0.0502072
0.166156
0.0483791
0.196839
0.184206
-0.0885678
0.029649
0.00283409
0.00270323
0.00117359
0.411752
0.377876
-0.0859081
0.000218821
0.000767741
0.00025465
0
0
0
0
-0.000302716
-4.9866e-05
7.21091e-05
0.106301
5.71483e-08
2.83901e-08
0.00973237
1.19663e-07
1.65067e-07
0.056683
0.209433
2.06088e-08
1.49387e-07
3.22652e-08
-1.86716e-06
4.5416e-06
0.361168
-7.69779e-07
0.105271
-0.00348362
0.448959
-4.83963e-05
9.43568e-06
-1.55386e-05
0.0860087
0.00720898
0.361581
0.239006
0.220941
-0.0306869
2.40811e-10
1.84596e-10
0
-0.011719
0.00982648
0.567023
3.44867e-06
0.459208
0.503921
2.49348e-06
7.49119e-05
-1.41155e-07
-4.02965e-06
2.8985e-07
0.00235895
0.319987
0.0994967
0.00188951
0.0482118
-1.10356e-08
0.00511682
5.12008e-09
0.0398952
0.138679
0.251496
0.239604
0.151813
0.0250756
-2.27454e-05
-7.36447e-06
0.00754665
0.000277069
-0.0050033
0.430824
-0.000856658
-0.0662795
-0.00140383
0.0147827
2.38953e-06
0.351312
0.488554
-1.4642e-06
0.516858
0.0131351
8.08469e-09
-9.14906e-09
1.04216e-07
0.00737442
7.47302e-05
0.01464
3.18925e-09
0.00242516
-0.000281181
2.53784e-09
0.191638
0.412421
0.224388
0.291323
-2.00237e-06
0.0353259
-1.56764e-06
0.0110381
-0.00413108
-0.0011096
5.046e-07
-0.131108
-7.78325e-10
7.82601e-10
0
4.61248e-06
-2.15364e-06
-0.0727957
0.00647628
0.161261
0.0164927
-0.00307392
0.493881
0.0106827
9.67024e-05
0.394394
0
0
0
0
0.475694
-7.0342e-10
5.13152e-09
2.54988e-09
0.448528
-0.416044
0.217322
0.247195
-2.14015e-07
-6.90427e-09
0
0
0
0
0.00531877
-0.415209
0.197961
0.203664
0.0568372
0.000979547
5.59915e-07
4.5517e-05
0.000210217
7.59032e-05
8.17901e-08
3.2393e-08
8.03768e-08
1.44791e-07
0.0528062
1.04629e-05
1.94363e-05
9.75176e-07
-9.4577e-07
-0.0781292
-0.0650507
-6.00253e-05
-0.0469256
0
0.523133
0.53431
0.000661888
-0.00196693
-0.00135842
-0.279875
-0.410693
-7.82898e-05
0.111383
0.287512
0.0166548
0.337475
0
7.48674e-06
1.46562e-06
4.71663e-06
0.0653403
0.0974839
-0.126176
-1.71479e-05
3.92879e-06
0.261925
0.0076527
0.1039
6.98574e-06
4.93151e-06
-1.51304e-07
2.59234e-07
0.00123282
0
0.00232254
0.170765
0
1.54357e-10
0
-4.81398e-08
2.23917e-07
0.00237524
0.000407679
0.000114147
2.3801e-05
-0.00019627
-0.000186993
0.000214403
-0.000296533
-0.000423486
0.46982
1.95324e-09
-2.93174e-10
5.7643e-06
4.33595e-06
3.88451e-06
3.86066e-06
-0.000287798
-3.71951e-05
3.00599e-09
-2.41182e-09
4.52447e-08
2.55368e-08
0.00206246
0.00322063
0.00314289
0.469129
0.013451
-7.20362e-09
8.26757e-09
8.79818e-10
-0.353413
0.454004
0.229676
0.400908
0.340141
-1.055e-09
-1.35237e-08
0.0581176
0.0103948
0.201541
0
1.30003e-10
0.160238
0.133242
0
0.470747
0.039122
0.0302351
0.0507906
0.381158
0.456653
0.133634
0.27577
-0.399492
2.12055e-05
-7.36821e-05
-6.47887e-06
0.116152
0.00905472
0.185309
0.412337
0.2809
0.373837
0
-0.000171032
0.000343507
1.50632e-10
8.67807e-10
-0.000708925
-6.29826e-05
1.07386e-05
-0.000500302
-1.06296e-10
1.86721e-09
1.11128e-09
3.22474e-09
-0.00071481
0.164459
0.245433
0.136746
0
0
0
-1.16121e-10
1.83433e-09
-0.398418
-0.00366624
-0.00487716
4.58945e-06
-0.0053887
0.0828895
0.164237
0.109425
2.08292e-05
0.0134062
-1.05126e-06
3.4544e-07
2.18332e-06
8.12163e-05
4.60544e-05
0
0.00120183
0.00038714
8.48498e-05
-0.000178107
0.0989892
1.93565e-10
1.22167e-09
0.12404
0.0842626
0.0218845
6.44996e-09
-3.17264e-08
2.63243e-08
5.61879e-09
0.0145576
0
0
0
0
0.477283
0
2.71065e-05
-0.383371
-0.35938
-0.320971
0.316944
0.242897
0.0183011
0.00562078
0.0966293
0.012987
0
0
1.81474e-10
-0.233712
-0.373408
-0.290007
-0.183419
0.154979
-5.75649e-05
0.000114529
0
9.2673e-06
0.000120244
0
0
0
-0.0821056
3.30542e-06
2.78136e-06
0.245162
0.018352
0.0760994
1.17367e-10
0
1.08607e-10
-0.000273245
-0.403464
1.08181e-06
6.5408e-07
2.09947e-07
0.18415
-0.190507
-0.146965
-0.155614
0.00160851
0.00282904
-2.38097e-06
-1.5523e-06
-3.93507e-06
0.476243
0.325928
0.247751
0.000506304
0.000817109
0.00101343
0.314462
0.0811751
0.136364
-0.00306279
-0.0022482
3.36848e-10
0.19112
-0.00171664
-0.0013104
0.000164035
0.0332354
-9.35071e-10
0.000101921
-0.000180823
0.000556802
0.483432
1.02577e-05
0.444642
0.038549
7.50062e-06
3.91851e-07
2.16485e-05
-2.52065e-10
-3.3431e-10
-5.23589e-10
0.316817
0.32902
-0.000432327
0
2.41137e-06
0
0
0.00195004
0
0
0
0.00423529
0.0456097
-5.04054e-06
-3.52627e-06
0.000234926
1.94656e-05
-0.00016936
0.333394
0.0196152
0.0027363
0.389373
0.192454
-1.19323e-08
-0.226693
-0.315923
-0.163893
0.0308709
0.0129319
-0.00146493
-0.0118613
0.02464
0.00810192
0.0409467
0
-7.12299e-10
0
0.0114003
-0.0186797
-0.00943499
-0.0108005
-0.0111897
0.0174642
0.0169223
0.0156948
0.0109239
-0.00199006
5.53129e-09
-1.95158e-08
0.000577434
0.176632
-0.349386
0.143862
-1.43216e-07
1.27905e-06
4.7109e-08
0.0204991
-0.215475
0.00965835
8.65045e-07
0.13607
0.236776
0.225257
-0.0038078
-0.00664291
0.179087
-1.83873e-06
-0.00590641
0.0029627
4.11112e-06
-0.000105141
-6.87094e-05
0.000549627
0.000445319
0.113967
-2.83659e-05
-0.137675
-1.83961e-05
0.0665244
0.010654
2.01658e-05
0.254858
-9.2774e-06
-1.43215e-05
0.0311235
0.0628387
-1.37792e-08
6.63934e-08
3.67786e-08
1.17904e-07
-1.03786e-08
0.0934391
-3.70165e-08
-1.36739e-08
0.00135841
5.8312e-09
-1.78099e-08
0.381025
6.60797e-09
4.12257e-09
2.30811e-10
1.51962e-06
-3.7026e-05
7.43048e-06
-4.19717e-05
1.20656e-05
-0.131556
-0.0678817
0
-3.31464e-10
0.000111575
0.00134074
0.000419537
0.000180656
0.00206822
0.00139665
0
5.25852e-10
3.19437e-10
1.02771e-09
-3.96715e-06
-1.17396e-06
0.00166408
-0.000170403
-0.397657
-0.243648