# vtk DataFile Version 2.0
Unstructured Grid by M++
ASCII
DATASET UNSTRUCTURED_GRID
POINTS 4072 float
  0.828125   0.890625 0
  0.875000   0.531250 0
  0.828125   0.750000 0
  0.593750   0.968750 0
  0.828125   0.671875 0
  0.828125   0.875000 0
  0.593750   0.937500 0
  0.828125   0.656250 0
  0.828125   0.640625 0
  0.828125   0.843750 0
  0.593750   0.906250 0
  0.828125   0.625000 0
  0.781250   0.968750 0
  0.828125   0.609375 0
  0.828125   0.812500 0
  0.593750   0.875000 0
  0.593750   0.828125 0
  0.593750   0.796875 0
  0.828125   0.703125 0
  0.593750   0.765625 0
  0.828125   0.937500 0
  0.812500   0.875000 0
  0.859375   0.515625 0
  0.812500   0.734375 0
  0.812500   0.937500 0
  0.578125   1.000000 0
  0.578125   0.750000 0
  0.812500   0.687500 0
  0.578125   0.953125 0
  0.812500   0.656250 0
  0.812500   0.859375 0
  0.578125   0.921875 0
  0.812500   0.828125 0
  0.578125   0.890625 0
  0.812500   0.593750 0
  0.812500   0.796875 0
  0.578125   0.859375 0
  0.578125   0.812500 0
  0.578125   0.781250 0
  0.796875   1.000000 0
  0.796875   0.859375 0
  0.796875   0.718750 0
  0.562500   0.984375 0
  0.562500   0.937500 0
  0.796875   0.843750 0
  0.562500   0.906250 0
  0.796875   0.812500 0
  0.562500   0.875000 0
  0.796875   0.578125 0
  0.796875   0.781250 0
  0.562500   0.843750 0
  0.812500   0.984375 0
  0.562500   0.796875 0
  0.812500   0.953125 0
  0.562500   0.765625 0
  0.796875   0.937500 0
  0.546875   0.750000 0
  0.781250   0.984375 0
  0.828125   0.593750 0
  0.781250   0.843750 0
  0.781250   0.937500 0
  0.546875   1.000000 0
  0.781250   0.703125 0
  0.546875   0.968750 0
  0.546875   0.921875 0
  0.781250   0.828125 0
  0.546875   0.890625 0
  0.781250   0.796875 0
  0.546875   0.859375 0
  0.781250   0.562500 0
  0.781250   0.765625 0
  0.546875   0.828125 0
  0.796875   0.968750 0
  0.546875   0.781250 0
  0.765625   1.000000 0
  0.765625   0.968750 0
  0.531250   0.984375 0
  0.765625   0.687500 0
  0.531250   0.953125 0
  0.531250   0.937500 0
  0.531250   0.906250 0
  0.765625   0.812500 0
  0.531250   0.875000 0
  0.765625   0.781250 0
  0.531250   0.843750 0
  0.781250   1.000000 0
  0.765625   0.546875 0
  0.765625   0.750000 0
  0.531250   0.812500 0
  0.781250   0.953125 0
  0.531250   0.765625 0
  0.515625   0.750000 0
  0.750000   0.984375 0
  0.750000   0.953125 0
  0.796875   0.593750 0
  0.796875   0.562500 0
  0.750000   0.843750 0
  0.750000   0.937500 0
  0.515625   1.000000 0
  0.750000   0.906250 0
  0.515625   0.968750 0
  0.750000   0.671875 0
  0.750000   0.875000 0
  0.515625   0.937500 0
  0.515625   0.921875 0
  0.515625   0.890625 0
  0.750000   0.796875 0
  0.515625   0.859375 0
  0.750000   0.765625 0
  0.515625   0.828125 0
  1.000000   0.718750 0
  0.750000   0.531250 0
  0.750000   0.734375 0
  0.515625   0.796875 0
  0.734375   1.000000 0
  0.734375   0.968750 0
  0.734375   0.937500 0
  0.781250   0.578125 0
  0.781250   0.546875 0
  0.968750   0.578125 0
  0.734375   0.828125 0
  0.968750   0.546875 0
  0.734375   0.796875 0
  0.734375   0.765625 0
  0.968750   0.671875 0
  0.734375   0.734375 0
  0.968750   0.640625 0
  0.734375   0.703125 0
  0.968750   0.609375 0
  0.734375   0.671875 0
  0.734375   0.656250 0
  0.734375   0.625000 0
  0.968750   0.531250 0
  0.734375   0.593750 0
  0.984375   0.734375 0
  0.984375   0.703125 0
  0.734375   0.515625 0
  0.718750   0.984375 0
  0.718750   0.953125 0
  0.718750   0.921875 0
  0.953125   0.562500 0
  0.718750   0.812500 0
  0.953125   0.531250 0
  0.718750   0.781250 0
  0.718750   0.750000 0
  0.953125   0.656250 0
  0.718750   0.718750 0
  0.953125   0.625000 0
  0.718750   0.687500 0
  0.953125   0.593750 0
  0.718750   0.656250 0
  0.671875   1.000000 0
  0.718750   0.640625 0
  0.718750   0.609375 0
  0.953125   0.515625 0
  0.718750   0.578125 0
  0.968750   0.718750 0
  0.968750   0.687500 0
  0.953125   0.671875 0
  0.703125   0.968750 0
  0.703125   0.937500 0
  0.937500   0.656250 0
  0.703125   0.906250 0
  0.937500   0.546875 0
  0.703125   0.796875 0
  0.937500   0.515625 0
  0.703125   0.765625 0
  0.937500   0.671875 0
  0.703125   0.734375 0
  0.937500   0.640625 0
  0.703125   0.703125 0
  0.937500   0.609375 0
  0.703125   0.671875 0
  0.937500   0.578125 0
  0.703125   0.640625 0
  0.656250   0.984375 0
  0.703125   0.625000 0
  0.703125   0.593750 0
  0.718750   0.796875 0
  0.953125   0.734375 0
  0.812500   1.000000 0
  0.859375   0.656250 0
  0.703125   0.781250 0
  0.937500   0.718750 0
  0.953125   0.703125 0
  0.796875   0.984375 0
  0.843750   0.640625 0
  0.812500   0.968750 0
  0.859375   0.625000 0
  0.796875   0.953125 0
  0.843750   0.609375 0
  0.687500   0.953125 0
  0.687500   0.921875 0
  0.687500   0.890625 0
  0.921875   0.734375 0
  0.687500   0.796875 0
  0.687500   0.781250 0
  0.921875   0.703125 0
  0.687500   0.765625 0
  0.687500   0.750000 0
  0.921875   0.656250 0
  0.687500   0.718750 0
  0.921875   0.625000 0
  0.687500   0.687500 0
  0.921875   0.593750 0
  0.687500   0.656250 0
  0.640625   1.000000 0
  0.921875   0.562500 0
  0.687500   0.625000 0
  0.640625   0.968750 0
  0.687500   0.609375 0
  0.687500   0.578125 0
  0.937500   0.687500 0
  0.921875   0.671875 0
  0.671875   0.921875 0
  0.906250   0.656250 0
  0.671875   0.906250 0
  0.671875   0.875000 0
  0.906250   0.718750 0
  0.671875   0.781250 0
  0.671875   0.765625 0
  0.671875   0.734375 0
  0.906250   0.640625 0
  0.671875   0.703125 0
  0.906250   0.609375 0
  0.671875   0.671875 0
  0.906250   0.578125 0
  0.671875   0.640625 0
  0.625000   0.984375 0
  0.671875   0.609375 0
  0.625000   0.953125 0
  0.671875   0.593750 0
  0.671875   0.562500 0
  0.765625   0.953125 0
  0.812500   0.609375 0
  0.656250   1.000000 0
  0.656250   0.953125 0
  0.656250   0.906250 0
  0.890625   0.640625 0
  0.656250   0.890625 0
  0.656250   0.859375 0
  0.890625   0.734375 0
  0.656250   0.796875 0
  0.812500   0.921875 0
  0.562500   1.000000 0
  0.625000   0.828125 0
  0.812500   0.843750 0
  0.843750   0.593750 0
  0.812500   0.812500 0
  0.625000   0.718750 0
  0.828125   0.687500 0
  0.640625   0.593750 0
  0.812500   0.781250 0
  0.625000   0.687500 0
  0.765625   0.828125 0
  0.640625   0.562500 0
  0.812500   0.750000 0
  0.562500   0.828125 0
  0.781250   0.875000 0
  0.546875   0.937500 0
  0.781250   0.671875 0
  0.781250   0.593750 0
  0.546875   0.656250 0
  0.796875   0.750000 0
  0.562500   0.812500 0
  0.796875   0.546875 0
  0.765625   0.796875 0
  0.765625   0.593750 0
  1.000000   0.531250 0
  0.812500   0.718750 0
  0.859375   0.562500 0
  0.625000   0.625000 0
  0.812500   0.703125 0
  0.812500   0.906250 0
  0.578125   0.968750 0
  0.984375   0.593750 0
  0.828125   0.578125 0
  0.828125   0.781250 0
  0.593750   0.843750 0
  0.812500   0.671875 0
  0.625000   0.578125 0
  0.796875   0.671875 0
  0.562500   0.734375 0
  0.984375   0.562500 0
  0.828125   0.546875 0
  0.812500   0.640625 0
  0.750000   0.812500 0
  0.625000   0.546875 0
  0.796875   0.640625 0
  0.562500   0.703125 0
  0.828125   0.515625 0
  0.781250   0.734375 0
  0.546875   0.796875 0
  0.781250   0.531250 0
  0.750000   0.781250 0
  0.625000   0.515625 0
  0.796875   0.609375 0
  0.562500   0.671875 0
  0.765625   0.656250 0
  0.765625   0.859375 0
  0.531250   0.921875 0
  0.812500   0.578125 0
  0.562500   0.656250 0
  0.984375   0.687500 0
  0.750000   0.750000 0
  0.812500   0.562500 0
  0.812500   0.765625 0
  0.578125   0.828125 0
  0.562500   0.625000 0
  0.984375   0.656250 0
  0.750000   0.718750 0
  0.812500   0.531250 0
  0.781250   0.656250 0
  0.546875   0.718750 0
  0.781250   0.625000 0
  0.546875   0.687500 0
  0.750000   0.640625 0
  0.796875   0.531250 0
  0.562500   0.593750 0
  0.984375   0.625000 0
  0.750000   0.687500 0
  0.546875   0.984375 0
  0.609375   0.812500 0
  0.796875   0.875000 0
  0.546875   0.953125 0
  0.609375   0.578125 0
  0.843750   0.515625 0
  0.765625   0.515625 0
  0.765625   0.718750 0
  0.531250   0.781250 0
  0.984375   0.546875 0
  0.750000   0.609375 0
  0.796875   0.828125 0
  0.671875   0.968750 0
  0.796875   0.796875 0
  0.796875   0.765625 0
  0.609375   0.671875 0
  0.796875   0.734375 0
  0.546875   0.812500 0
  0.796875   0.703125 0
  0.843750   0.546875 0
  0.609375   0.609375 0
  0.796875   0.687500 0
  0.562500   0.953125 0
  0.796875   0.656250 0
  0.609375   0.562500 0
  0.796875   0.625000 0
  0.609375   0.531250 0
  0.546875   0.640625 0
  0.765625   0.671875 0
  0.531250   0.734375 0
  0.796875   0.515625 0
  0.765625   0.640625 0
  0.531250   0.703125 0
  0.703125   1.000000 0
  0.765625   0.609375 0
  0.531250   0.671875 0
  0.765625   0.578125 0
  0.531250   0.640625 0
  0.546875   0.609375 0
  0.531250   1.000000 0
  0.890625   0.593750 0
  0.656250   0.656250 0
  0.781250   0.515625 0
  0.546875   0.578125 0
  0.531250   0.968750 0
  0.890625   0.562500 0
  0.656250   0.625000 0
  0.609375   0.968750 0
  0.781250   0.859375 0
  0.656250   0.593750 0
  0.750000   0.703125 0
  0.515625   0.765625 0
  0.781250   0.812500 0
  0.781250   0.781250 0
  0.593750   0.687500 0
  0.781250   0.750000 0
  0.593750   0.656250 0
  0.781250   0.718750 0
  0.531250   0.796875 0
  0.828125   0.562500 0
  0.593750   0.625000 0
  0.781250   0.687500 0
  0.828125   0.531250 0
  0.593750   0.593750 0
  0.812500   0.625000 0
  0.578125   0.687500 0
  0.781250   0.640625 0
  0.781250   0.609375 0
  0.593750   0.515625 0
  0.515625   0.781250 0
  0.812500   0.546875 0
  0.578125   0.609375 0
  0.812500   0.515625 0
  0.578125   0.578125 0
  0.750000   0.656250 0
  0.515625   0.718750 0
  0.750000   0.625000 0
  0.515625   0.687500 0
  0.687500   0.984375 0
  0.750000   0.593750 0
  0.515625   0.656250 0
  0.531250   0.546875 0
  0.750000   0.562500 0
  0.515625   0.625000 0
  0.531250   0.515625 0
  0.984375   0.515625 0
  0.750000   0.578125 0
  0.515625   0.531250 0
  0.828125   0.796875 0
  0.640625   0.703125 0
  0.828125   0.765625 0
[...]
CELL_DATA 7648
SCALARS scalar_value float 1
LOOKUP_TABLE default
-2.59247e-05
-2.06741e-05
-3.29038e-08
1.13488e-07
2.04555e-08
1.9794e-08
-0.0250523
-0.0865351
-0.140386
-0.120653
0.0126937
0.0363979
0.0791999
0.00987835
0.131768
0.0854612
0.144898
-0.0109927
0.242328
0.379948
0.197161
0.355148
0.469702
0.42451
0.206859
0.131152
0.173034
0.0457572
0.138281
0.084259
0.106156
0.0304003
-9.73566e-08
-2.51115e-08
-2.05065e-07
3.41182e-08
0.109705
-0.0502768
0.000159664
-2.12927e-05
-0.276436
-0.222519
0.145735
0.148289
1.27155e-07
-6.22014e-08
-4.33692e-07
-2.74463e-07
1.01922e-06
4.98293e-07
-2.32529e-06
-2.20915e-06
1.26731e-07
-2.66502e-07
-1.71738e-06
1.68973e-07
-0.0840257
-0.127812
0.0623216
0.00422468
0.215614
0.346074
-0.000137318
-2.85315e-05
-1.82464e-05
4.70654e-05
-8.13863e-05
-5.25775e-05
-7.12964e-06
1.18233e-05
-6.64143e-06
-1.32892e-05
-4.36644e-06
0.200841
0.306342
-1.10411e-07
-6.67495e-07
-2.04938e-08
-4.98696e-08
2.60328e-07
-6.25348e-08
-3.14175e-07
8.67002e-07
-8.68692e-07
-6.23876e-07
1.42892e-07
4.61366e-07
1.81793e-05
1.08757e-05
-7.50152e-06
0.000106588
-0.00014951
-7.8013e-05
5.39547e-05
0.00016134
-8.66865e-06
-0.000118708
-1.29752e-05
-0.000190462
-0.000139533
-0.000136032
-3.66858e-05
0.00012085
-8.1168e-05
0.449179
1.52435e-10
-4.14958e-10
-1.00037e-09
-2.57404e-08
-1.4142e-08
-2.73169e-08
5.35257e-10
-1.60161e-08
2.12198e-09
8.75106e-08
-8.50439e-09
7.77169e-09
2.25079e-08
-3.64467e-09
0.119716
0.204764
0.249953
0.216508
0.211671
0.186906
0.249364
0.0518022
-4.52592e-08
-1.18474e-08
-1.82723e-08
4.31491e-09
-3.9416e-08
-8.34879e-09
-3.94149e-08
1.16907e-08
-0.0170079
-0.0437703
-0.0181696
-0.0775071
-0.251171
2.58502e-10
0
-1.01908e-05
8.99285e-05
-0.000288637
-0.00107438
-0.0010995
-6.61059e-05
-0.0363055
0.0549252
0.123929
0.0012537
0.000585008
0.00137893
-0.000158253
-0.000137374
-0.000105933
-0.000102725
-5.81266e-05
2.33479e-05
2.088e-05
-0.205518
-0.254174
-0.0878901
-0.29401
0.152371
-0.207822
-0.219091
-0.252217
-0.153477
8.77346e-08
1.1997e-08
5.74654e-10
-3.91425e-10
-5.23186e-08
-1.59146e-08
0.0535865
0.059894
0.095545
0.0165756
0.0559328
0.0182309
0.00311264
0.00875067
0.000145559
-0.00198707
-0.00749681
1.94759e-05
-6.31928e-05
-0.00194415
-0.00579559
0.166932
0.0343161
-0.00254465
-0.000883435
-0.00289707
0.000961883
-1.63452e-06
-8.24128e-07
-1.36719e-06
2.70086e-08
0.0290313
-0.0725334
-0.157029
-0.103818
9.00206e-08
2.52302e-08
-0.205431
-0.179137
-0.0863802
-0.176836
-0.109451
0.0332576
0.0745078
0.0236768
-0.141539
-0.117422
-0.0548432
-0.041675
-2.02561e-06
7.61951e-06
6.92239e-06
2.60786e-05
4.67951e-06
-4.02295e-05
4.28039e-05
6.23617e-06
6.50441e-05
8.40244e-08
7.43177e-05
0.0451323
0.025405
0.0928736
-0.102122
-2.07275e-07
-2.82879e-08
-2.63764e-07
1.0194e-07
-0.158539
-0.19686
-0.220904
-0.162191
-2.73046e-07
-3.46206e-08
-2.40316e-07
1.05824e-07
-0.00216269
0.00987831
-1.31466e-07
-7.16935e-08
1.23419e-07
-1.84452e-07
7.19782e-08
-6.47517e-08
-3.43359e-08
-1.13438e-07
-4.8591e-08
6.70441e-09
-1.9226e-08
-1.68265e-08
-5.33963e-09
-3.19367e-08
7.49155e-09
8.58539e-09
6.89666e-08
-1.96297e-08
1.60432e-08
-1.59711e-10
1.07006e-08
-7.63341e-09
-1.4892e-10
3.95056e-05
0.000149663
1.88262e-06
1.69458e-05
7.46969e-06
6.27459e-06
2.97256e-06
0.202767
0.315718
0.401477
0.00062212
0.00136324
-0.000145636
0.00124152
0.00107592
-8.70107e-05
-4.76016e-05
-4.26654e-05
-6.91025e-07
-1.79826e-05
-4.62898e-06
-1.15749e-05
9.10579e-06
-0.000502861
0.000185992
0.134222
0.0815209
1.37304e-09
-8.84156e-07
-1.30975e-08
0.0426018
0.000544941
0.00786076
0.0262177
3.07654e-06
-0.0214076
-0.0643187
-0.00874051
6.19087e-05
-0.0830121
0.119509
-1.42132e-06
0.0591464
8.28237e-07
-2.02858e-06
-5.219e-06
2.02055e-09
1.23757e-09
-0.00444133
0.517253
-7.99358e-06
0.00477058
0.243418
3.83658e-07
1.08923e-07
-1.34647e-06
0.106396
5.81128e-05
0.178728
-0.00769876
-0.0893142
-1.78998e-06
-0.0654673
0.0185881
-0.065866
0.0259829
0.000810513
-0.128174
2.22877e-05
2.03289e-05
2.32867e-05
0.38324
2.32949e-05
-6.22139e-06
1.07785e-07
5.75432e-08
0.207277
-4.93971e-07
-0.124619
-4.51666e-06
-0.0439903
-6.04288e-09
-0.00490468
0.019834
-2.34554e-05
6.1958e-06
0.295989
0.16263
-0.36028
1.57524e-06
-9.42386e-07
-3.25634e-07
0.0210765
-2.07012e-06
0.46016
-1.96525e-05
-3.84332e-05
-2.7365e-05
0.200194
1.519e-05
0.172322
0.144471
1.70992e-09
-5.48441e-08
0.168594
-0.000109549
-0.360078
-0.125744
2.44982e-06
0.0709329
-9.70281e-08
-0.362722
0
0
0
-3.0824e-07
-4.3088e-07
-4.38785e-07
-0.00398344
-0.00736384
-0.000391153
0.165879
3.36156e-07
-0.0101391
-0.0507216
0.0177352
-0.0125978
-4.56326e-07
-1.52139e-07
0.0395877
-1.75966e-07
0.113708
-2.73581e-08
-0.00740488
0.233123
-0.000750596
-1.00536e-07
0.0515305
-0.000619658
5.12619e-08
0.318308
-1.49162e-06
0.0003547
-1.74745e-06
3.20319e-07
2.36237e-07
-3.462e-07
0.0234699
2.77286e-08
0.000433872
1.18156e-07
0.200911
0.00138295
-0.234799
0.00201093
0.0148227
0.000341748
3.89662e-09
-9.59372e-10
-3.62986e-07
0.368916
0.0947617
0.000409597
-1.7231e-09
1.24952e-07
0.0953835
2.61493e-08
8.9025e-08
0
-0.133604
0
0.00061787
-0.00083768
-0.00113059
8.27956e-08
-1.48512e-06
-7.22521e-06
1.52719e-07
-1.9876e-08
1.10771e-07
-0.000449158
-0.00015899
-0.0115363
-0.327887
0
1.55152e-09
-2.36293e-05
-0.0885287
-0.127965
-0.002435
0.0860426
1.56446e-08
-0.0477919
0.510963
-0.000125316
-7.6112e-07
1.64805e-07
-0.182527
-7.59948e-07
5.41421e-07
1.30822e-07
7.32741e-09
4.71882e-07
-0.0815358
-0.000385665
-0.168038
0.173344
0.0374587
0.179219
1.18993e-09
1.02821e-05
-0.169453
0.140661
-7.47917e-05
0.189107
0.191467
0.0904684
-0.125003
0.127487
-0.052797
0.350083
0.479907
0.298504
5.21106e-07
-1.8298e-05
0.365585
-8.3083e-05
-3.84564e-05
-7.09441e-05
0.527324
6.52626e-05
2.57154e-09
0.00437503
-5.49599e-07
1.07671e-06
0.0325265
-0.124317
0.174389
5.55472e-07
0.000818648
0.0295134
1.55247e-08
0.2838
-6.5713e-07
3.96895e-07
0.110414
5.65186e-07
1.96877e-05
0.387063
0.27985
-1.03101e-05
0.0828976
0.186255
0.434345
6.02638e-10
-0.000126366
0.000423314
-8.14573e-09
-0.000926942
6.14623e-07
0.0966415
-0.00053821
2.51233e-05
-1.5258e-06
-0.000161352
3.11396e-06
0.0161624
-0.000279384
0.000400003
0
-0.00767632
5.91673e-10
0.000286883
-0.00683281
-0.0117348
1.41123e-06
-0.0190557
0.0471778
-0.0548798
-0.0408041
3.58883e-07
-1.04478e-07
0.280695
0.000437865
-0.0317866
1.83892e-07
-0.0030154
-9.93472e-07
0.191225
1.1695e-09
-2.83863e-09
0.51537
-7.00194e-09
-6.1687e-05
0.154848
-0.000103406
-9.7109e-08
-0.122424
9.05961e-07
-0.310788
8.46456e-07
-0.338885
0.243348
0.226159
7.40724e-07
0.270896
-2.07934e-06
0.149554
1.71683e-06
0.05268
0.349201
0.289585
-7.27884e-07
3.53576e-08
8.13342e-09
3.6696e-08
-0.00171052
-9.55955e-09
0.00069568
-0.000505437
0.000333194
6.86466e-09
0.00117223
-0.259964
-1.27158e-10
-2.41094e-08
-0.00154429
-1.26787e-07
-2.35489e-08
0
0
0.00525176
-1.03656e-07
-9.58368e-05
0.000210132
-0.00026946
4.79815e-07
-0.00011588
0.0981763
-0.00536993
3.78619e-09
-0.000235141
-0.000134062
-0.000105313
1.04277e-06
7.93193e-07
0.00175159
-0.000298542
-0.0157473
4.05639e-07
0.169409
0.175857
0.176524
-3.87999e-05
-0.000401046
-0.208435
-0.188282
1.30939e-05
0.124467
-0.221071
-0.000684237
-0.0348062
0.484991
9.08669e-05
-0.173703
-0.160631
0.0496082
1.76263e-05
1.45598e-05
4.64957e-07
0.000543534
-0.000157216
1.20172e-05
0.0710386
-2.65592e-06
0.128126
-4.20619e-06
7.78611e-07
0.275044
0.362279
-0.00829496
-6.45076e-05
-0.00067693
0.0693181
0.00126444
-1.9484e-05
0.0190153
-3.34888e-07
0.00813419
0.231571
0.000158337
0.11281
0.420036
-0.090441
-0.306014
-1.92518e-07
0.0554919
0.0803455
0.0511492
-4.4711e-07
-3.48237e-05
0
-0.00051
0
0.000307016
-2.79924e-08
0.146062
-0.0686602
1.1123e-05
0.1389
-2.33502e-07
0.384879
-0.00525458
-3.09284e-07
0.187618
1.39933e-06
-9.25159e-08
7.99609e-07
-0.219844
-8.51115e-07
5.74612e-07
-5.15801e-07
-1.11973e-06
0.000222719
-2.21015e-05
0.000711805
0.000545213
-1.17752e-10
-2.99183e-05
0.11248
-3.36478e-10
0.000889016
4.3094e-07
-1.43474e-08
0.151647
-0.188962
3.08205e-10
-3.52389e-09
-0.000127342
-9.95515e-08
-0.000135272
0.235976
0.380854
-0.00307775
-0.00133244
2.22892e-10
0.157893
-2.22587e-07
-0.288714
0.00141467
-0.110454
0.0370016
1.09034e-08
1.63798e-10
-0.0864523
-0.00925847
-0.0938431
5.54171e-08
0.00298276
0.240556
-4.08594e-05
5.65966e-10
-0.0459947
0.0032551
0.335605
-8.93257e-10
0.165482
0.00011167
0.102804
0.222962
0.000213326
3.03396e-10
-0.00786309
-3.21975e-05
-2.97015e-08
2.17733e-09
0.210674
-0.202775
0
0.000289107
-0.000142385
-5.85321e-06
-9.44412e-07
0.0956705
0.115733
-0.294022
-3.31621e-08
2.33124e-07
1.26711e-09
-0.00020983
-0.000278903
1.65895e-06
0.000301167
4.73567e-08
-5.78457e-10
-0.000174482
2.64998e-07
0.00038544
-1.14365e-10
0
0.000276763
0.114202
0.00214491
0.000613931
0.162188
-0.000270641
-3.92308e-09
-0.00272867
0.0471926
0.00025894
2.30042e-09
-0.0758287
-2.39407e-07
-0.121376
0.287411
7.92919e-08
0.240719
-5.69336e-09
-1.46443e-07
-0.297044
0
-0.349134
-3.77845e-08
-5.85397e-07
0.229169
-1.27376e-08
-0.000814231
-0.00133829
0.0935149
2.59417e-10
4.16479e-07
-0.10282
-0.105548
0
1.99554e-07
-1.56187e-05
-0.356584
2.20105e-05
-2.78371e-05
0.126896
-0.00500893
-0.0444903
0.00447438
0.377817
0.0321041
0.102606
3.60093e-07
0.000568472
0.234409
-0.0270874
-2.2813e-08
0
-0.00458077
1.73071e-09
0.196935
-0.0466225
-1.06368e-05
0.00154205
0.31367
0.443072
0.176192
-0.171756
-0.208218
-1.2949e-07
0.0411861
-0.000860927
5.82987e-09
-7.75826e-05
0.0733519
-0.030946
0.000398444
0.179757
-0.00110728
3.06066e-09
0.0169811
0.260881
-2.72458e-07
-1.42495e-05
1.37202e-06
0
1.96708e-10
1.18194e-06
0.00183902
0
-0.00013659
-0.282094
0.000784737
-3.60128e-05
-2.97674e-07
0.210737
-0.207983
-6.67754e-07
0.194462
-0.233347
-0.0583573
0.0149967
2.48563e-07
-0.187519
-4.91244e-09
3.43873e-07
3.03295e-07
3.34797e-09
-0.303583
-3.81402e-07
2.11584e-05
-0.0793804
0.487293
0.0183596
0.0032035
0.110388
-5.14794e-08
-0.355023
-8.12552e-07
0.176338
1.39179e-05
2.2769e-08
0.179254
-0.000701858
-0.242095
0.102666
0.158163
-3.26115e-06
2.94422e-09
0
0.000595416
3.89332e-09
-3.60424e-06
-0.229657
2.42738e-08
1.51902e-06
-0.335391
0
0.184165
7.1869e-09
0.211425
0.11891
-2.96936e-05
-0.006796
-3.15971e-08
-0.00272334
-0.000313811
-0.2777
-7.75706e-07
-9.33453e-05
0.458913
0.0639193
-0.0390033
-0.176861
-0.000126521
0.159047
0.00505222
0
0.169825
-5.71016e-09
3.24473e-09
-0.053537
0.000450195
1.44919e-09
-6.13336e-10
-0.00291709
0.0508556
-2.03118e-08
0.0238175
-0.000117851
0.165657
0
-5.55197e-08
-7.46432e-09
-5.05021e-09
-0.420243
5.61674e-07
1.38355e-09
0.00713545
-0.133055
0.000188162
0.34785
0.209112
-4.18986e-10
7.80248e-06
0.0184606
0
0.229849
-0.288574
2.29139e-06
1.7446e-07
-6.66199e-10
1.62869e-08
-0.000430528
0.0493456
4.2682e-07
-0.00227817
-4.75029e-10
-0.400606
0.391546
-1.8653e-10
5.01301e-06
-1.08274e-05
1.32989e-09
0.335014
-0.000433885
8.73837e-10
0.0021439
0
0.0105364
0.0775403
0
0.240746
0.000221713
6.45645e-07
0
0.000466927
-0.0497951
0.0608974
0.0829018
-0.160765
-1.09386e-10
0.259327
0.0407634
1.35245e-06
0.000576508
-1.35455e-10
0.00289842
-0.0557585
0.11457
1.77985e-06
0.365899
0.000384148
0.000530322
0.320305
-6.91931e-07
3.77488e-09
-0.000291335
2.72315e-06
-3.32251e-05
0.000692956
0.247847
8.96406e-05
0.338666
-0.00211036
-3.06708e-05
-0.373526
0.000489544
0
-0.00232496
1.19542e-05
0.283309
-2.28525e-06
3.73273e-05
0.180925
-4.26833e-05
-0.0997232
-8.32114e-07
0.000652515
1.06735e-08
-0.172653
5.03122e-07
0.0661556
3.04345e-05
9.91871e-08
-7.55402e-06
0.232874
-0.0264851
0.114904
-1.67326e-08
-2.4013e-05
-0.123381
2.21505e-05
-4.54355e-07
0
-0.108405
2.74564e-07
0
4.07211e-05
-0.16293
-0.00320502
0.0848502
0.297725
0.020252
0.000541409
0.0161886
-0.00716894
0.00518598
-0.000754268
5.36738e-05
0.0496433
9.75137e-05
0.016763
0.184288
0.169453
-0.257613
-8.66107e-08
0.375499
-0.00172921
0
0.00131167
0
-0.000893313
2.99018e-07
-7.43487e-09
0.049111
-0.101846
-0.000825365
-0.0214597
7.60815e-06
2.1978e-07
0.414889
0.380423
0.339227
0.395715
0.416314
0.357775
-5.42307e-08
0.103505
0.430637
0.484691
0.0480545
-1.46754e-08
-2.46889e-05
-5.82188e-07
-4.87208e-08
0.00261359
5.26464e-08
-0.00411768
-0.197156
-7.87971e-05
0
0.000133928
0.176939
0.317804
-0.000301861
0.1899
0.0384847
0.0375132
0.245187
0.152343
0.217561
0.0146495
0.166139
0.249304
-0.0114048
-0.0120745
0.0979875
-5.72646e-07
-0.0934761
1.2326e-08
0.396379
0.0465921
0.459337
2.92815e-06
-0.000745238
-2.78124e-07
-0.00870351
0.29324
0.143484
0.113532
0.0441543
0.289805
0.22725
-1.27144e-08
0.241656
3.98911e-08
-2.40288e-09
0
-1.50877e-10
-0.169793
-0.255742
0.351225
-0.203006
0.0520602
0.194747
0.153544
0.00177316
2.05455e-05
0.475577
1.45218e-09
-1.26083e-08
2.4359e-09
-0.0101073
-9.46946e-09
-2.49986e-08
-2.4814e-08
2.21917e-05
9.01988e-09
1.83846e-08
-0.0437597
0.306835
2.3728e-07
-0.0377115
-1.42458e-06
0.091114
-7.38139e-08
2.06548e-05
0.146038
0
-0.37788
0
1.27646e-10
0
-0.422303
-0.220394
-0.300328
-1.96373e-10
-1.19294e-10
-0.175314
0
0
-0.305728
0
-0.113394
0
-0.121701
0
-0.000204857
7.97505e-08
-0.0408329
9.05071e-10
0.000158687
0
-0.000388296
-9.50433e-09
-1.58935e-06
-6.33007e-06
0.161235
0.186638
0.0669636
0.141541
0.179654
-1.98307e-06
-2.44564e-06
5.65681e-06
0.407889
2.11161e-06
-5.35665e-07
1.59465e-06
-9.66592e-09
0.298365
0.187733
-0.00205725
0.000130698
0.205756
1.55871e-07
0.0959288
0.0791909
0.00036513
-0.0023321
0.00845886
-0.0196211
-0.0900756
5.03303e-09
-0.000370061
-2.02676e-08
-1.28345e-06
0.219341
-0.00786017
-6.71894e-08
0.00724092
0.436306
0.0633584
-0.00110148
-3.49716e-08
4.37409e-07
-0.394352
-0.193996
0.349139
-0.175998
7.26633e-05
2.22189e-05
2.19691e-06
-0.000428073
8.40958e-07
-0.000279239
-0.236382
0.00424153
-3.94939e-07
-1.06866e-06
-0.169565
6.32409e-09
0.0556416
6.44047e-09
0.164778
0.00129502
-1.52833e-09
0.00103346
-0.000309445
0.000170099
0.00084518
-1.1517e-05
-1.64698e-05
0.091356
8.16219e-09
-0.321026
-9.9477e-08
4.32021e-06
0.292655
6.86595e-05
-7.72365e-09
-0.245027
-0.306969
-0.1714
3.53439e-10
1.54558e-08
0.107617
-3.62879e-07
-5.26284e-07
0.00864648
5.19877e-07
0.213629
1.56858e-08
-4.45638e-07
6.64324e-08
-3.76311e-07
8.3224e-08
-0.00393879
-0.0537075
0.319841
-0.0163546
3.63668e-05
1.03736e-05
0.000150316
2.21736e-05
-0.00189518
1.14759e-08
-0.00221835
-0.00070227
0.312597
0.139305
0.0109791
0.194918
2.36793e-07
0.0611765
1.44027e-07
0.11955
2.8511e-07
0.0842896
-0.311643
0.345597
0.305373
0.355154
0.370935
-1.24542e-06
1.01135e-05
-1.80788e-06
-1.19534e-08
0.113423
-0.23981
-0.00042102
0.133374
-0.380658
-0.386861
0.446611
2.37833e-07
0.001157
0.166899
-0.0427661
0.00297596
0.271617
0.0661373
-2.12602e-09
2.4973e-09
2.99407e-10
0.00115969
-0.383004
0.0761215
-1.8764e-08
-0.129278
0.0917334
-0.054237
-0.0871484
0.323892
-3.81799e-05
0.468958
0.571427
0.170326
-0.000270411
0.000299834
0.453158
-0.00890962
0.203804
0.26048
-5.13688e-09
-5.99614e-06
-1.32864e-05
-1.66316e-08
3.89646e-10
-1.45032e-09
0.394883
0.489413
0.467426
0.461596
7.05305e-05
-0.0663732
0.114064
-0.0879035
0.0178089
0.090353
0.0476131
0.498973
0.255366
0.25122
0.157926
-0.354911
0.24305
0.140481
0.00101129
0.132061
0.0591349
1.91172e-10
-2.68321e-10
0
-4.42265e-10
-0.000304381
-3.48327e-05
0.000156649
0.221406
1.44546e-06
-3.31634e-07
0.314154
1.95393e-07
2.03462e-06
0.213935
-0.0294405
-1.52456e-07
4.38832e-07
8.59167e-07
2.09927e-06
3.4263e-06
0.22262
5.99433e-08
0.0928145
0.000753887
-0.328434
-0.000122297
-0.000102863
-0.000126899
0.308209
0.341366
0.12412
0.124075
0.0370177
-0.0639108
5.09591e-09
0
-8.22443e-09
0.00518478
0.350914
0.0740285
-3.17036e-06
0.284038
0.213544
7.94838e-07
0.212282
1.09032e-06
1.16484e-05
9.1693e-07
0.170073
-0.285267
0.0243799
0.000562517
-0.00663546
3.38521e-08
0.000457789
-1.93264e-09
0.0246809
0.17217
0.0421763
0.0957482
0.144575
-0.0496932
-0.000139752
0.000405557
0.297848
0.000437718
-0.00440237
0.330555
-0.00353767
-0.0500901
0.138732
0.321269
-1.04423e-05
0.324518
-0.242217
1.8954e-06
-0.0727556
0.371809
2.13286e-07
-8.66685e-07
9.11214e-06
0.340014
0.00880171
0.122447
-1.58877e-08
0.0244465
0.0020448
1.26173e-09
0.116127
-0.340114
0.113359
0.128381
-2.6876e-07
0.26802
1.07807e-07
0.37965
4.83243e-05
0.000279905
2.03684e-07
0.213285
3.43668e-10
-7.0694e-10
0
-0.000207356
-0.000160075
-0.116303
0.175421
0.0355537
0.270878
0.179376
0.298793
0.471652
0.0384249
-0.379416
2.7605e-09
-1.14094e-09
1.42052e-09
-2.21893e-09
-0.342881
-1.39615e-08
2.50943e-07
1.27554e-07
-0.31055
-0.123612
0.0835954
0.0427214
1.44821e-06
-1.05366e-07
2.17003e-10
1.88666e-10
6.69181e-10
5.42673e-10
-0.00329143
-0.204512
-0.0635212
0.0179817
0.0531441
0.137253
-3.93831e-05
0.0154926
0.0505176
0.0220949
9.32303e-06
-2.37822e-06
7.20756e-06
1.21033e-05
0.426515
-2.22067e-05
-4.12871e-05
1.16318e-05
1.6785e-06
-0.00377951
0.134786
-3.77704e-05
0.0856341
1.8766e-09
-0.0651268
0.184277
-0.00083073
0.103699
-0.00050159
-0.252538
-0.25787
6.64504e-05
0.182197
-0.335155
0.410803
-0.34006
0
4.42758e-06
-1.68739e-06
1.43786e-05
0.442744
0.302009
-0.0853456
-0.000139504
-0.000134741
0.131903
0.0181983
0.0741385
1.41207e-06
-7.93201e-05
-2.37282e-06
9.47143e-06
-0.00501183
5.84021e-09
0.181937
-0.0173718
0
4.36499e-08
5.64107e-10
6.95612e-07
-1.8588e-06
0.245359
0.0631686
0.0229453
0.0102649
0.000256573
-0.000410927
0.0388273
0.00599766
0.0338798
-0.276114
-1.3246e-08
1.10147e-09
-7.54483e-05
-2.26457e-05
-5.76354e-05
-5.74569e-05
0.000277211
-0.000339125
-7.13674e-07
-6.09001e-07
-2.36455e-07
5.20666e-07
0.225779
0.293939
0.295033
-0.272474
0.505119
-7.97343e-09
7.70957e-09
1.92782e-09
-0.0351061
0.149188
0.097287
0.0912221
0.150413
-8.28695e-10
4.25022e-09
0.403994
-0.0126158
0.0548649
-1.21773e-10
-3.83698e-09
0.0373242
0.00108997
-1.22576e-10
0.327331
0.568963
0.466907
0.511053
-0.380709
-0.290954
-0.132923
-0.300677
-0.175149
-7.30935e-05
-0.00015555
-0.000121193
0.155952
0.451131
-0.0434941
-0.0687061
-0.0143799
-0.380505
3.34459e-09
-0.0069993
0.0384211
3.78725e-09
-9.12742e-09
0.071938
-1.01958e-05
5.01136e-05
0.0306221
1.30253e-08
1.7555e-07
1.12409e-07
2.1926e-07
-0.00182612
0.10225
0.149392
0.130008
6.85865e-10
1.05876e-09
1.0439e-09
-3.77461e-09
1.31102e-07
-0.209138
-0.00735224
-0.0120721
-5.05598e-06
-0.00437941
0.0844037
-0.0528103
0.0711142
1.50606e-05
0.430663
-7.8938e-06
3.52526e-06
2.22712e-05
0.0166466
0.0134853
4.08594e-09
0.107574
0.087311
0.000212291
-1.92392e-05
0.276914
1.47637e-09
-6.31998e-09
0.173364
-0.0308855
0.532627
6.76403e-09
-2.0504e-08
2.32335e-08
2.11803e-09
0.261635
-4.43475e-10
-3.0602e-10
0
2.80737e-10
-0.273492
0
-6.89139e-05
-0.0708359
-0.0459551
0.0269799
-0.0820639
-0.0763599
0.178142
0.0061999
0.00493562
-0.00288479
2.01072e-10
1.1081e-10
-7.3182e-10
0.0490775
-0.0279871
0.0601794
0.143964
0.0517318
-9.13223e-05
0.0010545
7.71341e-10
0.00046455
0.000818611
-1.15706e-10
-4.63718e-10
-1.27863e-10
0.0729848
1.70626e-05
-4.16152e-05
0.018518
0.362686
0.377236
2.81973e-09
2.78083e-09
5.83118e-09
-0.00855096
-0.277629
1.03353e-05
-1.8378e-05
-3.53497e-05
-0.122518
-0.142989
-0.159444
-0.193704
0.172555
0.212757
-6.87109e-05
-5.42892e-05
-5.96136e-05
0.32466
0.298131
0.101527
0.0997959
0.140597
0.150634
-0.364464
0.334238
0.109302
0.00120688
0.000259506
3.79414e-10
-0.00799161
-0.000224486
-0.000145793
-0.000124747
-0.0470907
-1.88746e-09
0.000719479
-0.000640098
0.000640929
0.324859
-1.42537e-05
0.285612
0.467709
-1.84909e-05
-6.49712e-06
-4.66469e-05
1.43193e-08
-3.31971e-08
1.85572e-08
-0.0309866
-0.104561
-0.000739648
-1.00413e-09
-0.00135758
-1.91297e-10
-8.39239e-10
0.232722
4.28421e-10
-3.4441e-10
2.3358e-09
0.263471
0.467888
-0.000101328
-8.50442e-05
0.0600246
-9.57931e-05
-0.00674868
0.300019
0.546745
0.00913935
0.204854
0.134204
5.12938e-08
-0.0803974
-0.0766153
0.0604141
0.497957
0.354616
0.0812411
0.152466
0.221547
0.316567
0.46145
-1.68878e-10
2.36128e-09
-1.63534e-10
0.0438308
0.00422254
0.00223297
0.00567641
-0.0173213
0.474511
0.427724
0.463463
0.430741
-0.00851367
5.06578e-09
1.05853e-08
-1.91211e-06
-0.0441886
-0.0420976
0.136222
7.56559e-09
7.03656e-07
4.60235e-08
0.254014
0.0994458