# vtk DataFile Version 2.0
Unstructured Grid by M++
ASCII
DATASET UNSTRUCTURED_GRID
POINTS 4072 float
  0.828125   0.890625 0
  0.875000   0.531250 0
  0.828125   0.750000 0
  0.593750   0.968750 0
  0.828125   0.671875 0
  0.828125   0.875000 0
  0.593750   0.937500 0
  0.828125   0.656250 0
  0.828125   0.640625 0
  0.828125   0.843750 0
  0.593750   0.906250 0
  0.828125   0.625000 0
  0.781250   0.968750 0
  0.828125   0.609375 0
  0.828125   0.812500 0
  0.593750   0.875000 0
  0.593750   0.828125 0
  0.593750   0.796875 0
  0.828125   0.703125 0
  0.593750   0.765625 0
  0.828125   0.937500 0
  0.812500   0.875000 0
  0.859375   0.515625 0
  0.812500   0.734375 0
  0.812500   0.937500 0
  0.578125   1.000000 0
  0.578125   0.750000 0
  0.812500   0.687500 0
  0.578125   0.953125 0
  0.812500   0.656250 0
  0.812500   0.859375 0
  0.578125   0.921875 0
  0.812500   0.828125 0
  0.578125   0.890625 0
  0.812500   0.593750 0
  0.812500   0.796875 0
  0.578125   0.859375 0
  0.578125   0.812500 0
  0.578125   0.781250 0
  0.796875   1.000000 0
  0.796875   0.859375 0
  0.796875   0.718750 0
  0.562500   0.984375 0
  0.562500   0.937500 0
  0.796875   0.843750 0
  0.562500   0.906250 0
  0.796875   0.812500 0
  0.562500   0.875000 0
  0.796875   0.578125 0
  0.796875   0.781250 0
  0.562500   0.843750 0
  0.812500   0.984375 0
  0.562500   0.796875 0
  0.812500   0.953125 0
  0.562500   0.765625 0
  0.796875   0.937500 0
  0.546875   0.750000 0
  0.781250   0.984375 0
  0.828125   0.593750 0
  0.781250   0.843750 0
  0.781250   0.937500 0
  0.546875   1.000000 0
  0.781250   0.703125 0
  0.546875   0.968750 0
  0.546875   0.921875 0
  0.781250   0.828125 0
  0.546875   0.890625 0
  0.781250   0.796875 0
  0.546875   0.859375 0
  0.781250   0.562500 0
  0.781250   0.765625 0
  0.546875   0.828125 0
  0.796875   0.968750 0
  0.546875   0.781250 0
  0.765625   1.000000 0
  0.765625   0.968750 0
  0.531250   0.984375 0
  0.765625   0.687500 0
  0.531250   0.953125 0
  0.531250   0.937500 0
  0.531250   0.906250 0
  0.765625   0.812500 0
  0.531250   0.875000 0
  0.765625   0.781250 0
  0.531250   0.843750 0
  0.781250   1.000000 0
  0.765625   0.546875 0
  0.765625   0.750000 0
  0.531250   0.812500 0
  0.781250   0.953125 0
  0.531250   0.765625 0
  0.515625   0.750000 0
  0.750000   0.984375 0
  0.750000   0.953125 0
  0.796875   0.593750 0
  0.796875   0.562500 0
  0.750000   0.843750 0
  0.750000   0.937500 0
  0.515625   1.000000 0
  0.750000   0.906250 0
  0.515625   0.968750 0
  0.750000   0.671875 0
  0.750000   0.875000 0
  0.515625   0.937500 0
  0.515625   0.921875 0
  0.515625   0.890625 0
  0.750000   0.796875 0
  0.515625   0.859375 0
  0.750000   0.765625 0
  0.515625   0.828125 0
  1.000000   0.718750 0
  0.750000   0.531250 0
  0.750000   0.734375 0
  0.515625   0.796875 0
  0.734375   1.000000 0
  0.734375   0.968750 0
  0.734375   0.937500 0
  0.781250   0.578125 0
  0.781250   0.546875 0
  0.968750   0.578125 0
  0.734375   0.828125 0
  0.968750   0.546875 0
  0.734375   0.796875 0
  0.734375   0.765625 0
  0.968750   0.671875 0
  0.734375   0.734375 0
  0.968750   0.640625 0
  0.734375   0.703125 0
  0.968750   0.609375 0
  0.734375   0.671875 0
  0.734375   0.656250 0
  0.734375   0.625000 0
  0.968750   0.531250 0
  0.734375   0.593750 0
  0.984375   0.734375 0
  0.984375   0.703125 0
  0.734375   0.515625 0
  0.718750   0.984375 0
  0.718750   0.953125 0
  0.718750   0.921875 0
  0.953125   0.562500 0
  0.718750   0.812500 0
  0.953125   0.531250 0
  0.718750   0.781250 0
  0.718750   0.750000 0
  0.953125   0.656250 0
  0.718750   0.718750 0
  0.953125   0.625000 0
  0.718750   0.687500 0
  0.953125   0.593750 0
  0.718750   0.656250 0
  0.671875   1.000000 0
  0.718750   0.640625 0
  0.718750   0.609375 0
  0.953125   0.515625 0
  0.718750   0.578125 0
  0.968750   0.718750 0
  0.968750   0.687500 0
  0.953125   0.671875 0
  0.703125   0.968750 0
  0.703125   0.937500 0
  0.937500   0.656250 0
  0.703125   0.906250 0
  0.937500   0.546875 0
  0.703125   0.796875 0
  0.937500   0.515625 0
  0.703125   0.765625 0
  0.937500   0.671875 0
  0.703125   0.734375 0
  0.937500   0.640625 0
  0.703125   0.703125 0
  0.937500   0.609375 0
  0.703125   0.671875 0
  0.937500   0.578125 0
  0.703125   0.640625 0
  0.656250   0.984375 0
  0.703125   0.625000 0
  0.703125   0.593750 0
  0.718750   0.796875 0
  0.953125   0.734375 0
  0.812500   1.000000 0
  0.859375   0.656250 0
  0.703125   0.781250 0
  0.937500   0.718750 0
  0.953125   0.703125 0
  0.796875   0.984375 0
  0.843750   0.640625 0
  0.812500   0.968750 0
  0.859375   0.625000 0
  0.796875   0.953125 0
  0.843750   0.609375 0
  0.687500   0.953125 0
  0.687500   0.921875 0
  0.687500   0.890625 0
  0.921875   0.734375 0
  0.687500   0.796875 0
  0.687500   0.781250 0
  0.921875   0.703125 0
  0.687500   0.765625 0
  0.687500   0.750000 0
  0.921875   0.656250 0
  0.687500   0.718750 0
  0.921875   0.625000 0
  0.687500   0.687500 0
  0.921875   0.593750 0
  0.687500   0.656250 0
  0.640625   1.000000 0
  0.921875   0.562500 0
  0.687500   0.625000 0
  0.640625   0.968750 0
  0.687500   0.609375 0
  0.687500   0.578125 0
  0.937500   0.687500 0
  0.921875   0.671875 0
  0.671875   0.921875 0
  0.906250   0.656250 0
  0.671875   0.906250 0
  0.671875   0.875000 0
  0.906250   0.718750 0
  0.671875   0.781250 0
  0.671875   0.765625 0
  0.671875   0.734375 0
  0.906250   0.640625 0
  0.671875   0.703125 0
  0.906250   0.609375 0
  0.671875   0.671875 0
  0.906250   0.578125 0
  0.671875   0.640625 0
  0.625000   0.984375 0
  0.671875   0.609375 0
  0.625000   0.953125 0
  0.671875   0.593750 0
  0.671875   0.562500 0
  0.765625   0.953125 0
  0.812500   0.609375 0
  0.656250   1.000000 0
  0.656250   0.953125 0
  0.656250   0.906250 0
  0.890625   0.640625 0
  0.656250   0.890625 0
  0.656250   0.859375 0
  0.890625   0.734375 0
  0.656250   0.796875 0
  0.812500   0.921875 0
  0.562500   1.000000 0
  0.625000   0.828125 0
  0.812500   0.843750 0
  0.843750   0.593750 0
  0.812500   0.812500 0
  0.625000   0.718750 0
  0.828125   0.687500 0
  0.640625   0.593750 0
  0.812500   0.781250 0
  0.625000   0.687500 0
  0.765625   0.828125 0
  0.640625   0.562500 0
  0.812500   0.750000 0
  0.562500   0.828125 0
  0.781250   0.875000 0
  0.546875   0.937500 0
  0.781250   0.671875 0
  0.781250   0.593750 0
  0.546875   0.656250 0
  0.796875   0.750000 0
  0.562500   0.812500 0
  0.796875   0.546875 0
  0.765625   0.796875 0
  0.765625   0.593750 0
  1.000000   0.531250 0
  0.812500   0.718750 0
  0.859375   0.562500 0
  0.625000   0.625000 0
  0.812500   0.703125 0
  0.812500   0.906250 0
  0.578125   0.968750 0
  0.984375   0.593750 0
  0.828125   0.578125 0
  0.828125   0.781250 0
  0.593750   0.843750 0
  0.812500   0.671875 0
  0.625000   0.578125 0
  0.796875   0.671875 0
  0.562500   0.734375 0
  0.984375   0.562500 0
  0.828125   0.546875 0
  0.812500   0.640625 0
  0.750000   0.812500 0
  0.625000   0.546875 0
  0.796875   0.640625 0
  0.562500   0.703125 0
  0.828125   0.515625 0
  0.781250   0.734375 0
  0.546875   0.796875 0
  0.781250   0.531250 0
  0.750000   0.781250 0
  0.625000   0.515625 0
  0.796875   0.609375 0
  0.562500   0.671875 0
  0.765625   0.656250 0
  0.765625   0.859375 0
  0.531250   0.921875 0
  0.812500   0.578125 0
  0.562500   0.656250 0
  0.984375   0.687500 0
  0.750000   0.750000 0
  0.812500   0.562500 0
  0.812500   0.765625 0
  0.578125   0.828125 0
  0.562500   0.625000 0
  0.984375   0.656250 0
  0.750000   0.718750 0
  0.812500   0.531250 0
  0.781250   0.656250 0
  0.546875   0.718750 0
  0.781250   0.625000 0
  0.546875   0.687500 0
  0.750000   0.640625 0
  0.796875   0.531250 0
  0.562500   0.593750 0
  0.984375   0.625000 0
  0.750000   0.687500 0
  0.546875   0.984375 0
  0.609375   0.812500 0
  0.796875   0.875000 0
  0.546875   0.953125 0
  0.609375   0.578125 0
  0.843750   0.515625 0
  0.765625   0.515625 0
  0.765625   0.718750 0
  0.531250   0.781250 0
  0.984375   0.546875 0
  0.750000   0.609375 0
  0.796875   0.828125 0
  0.671875   0.968750 0
  0.796875   0.796875 0
  0.796875   0.765625 0
  0.609375   0.671875 0
  0.796875   0.734375 0
  0.546875   0.812500 0
  0.796875   0.703125 0
  0.843750   0.546875 0
  0.609375   0.609375 0
  0.796875   0.687500 0
  0.562500   0.953125 0
  0.796875   0.656250 0
  0.609375   0.562500 0
  0.796875   0.625000 0
  0.609375   0.531250 0
  0.546875   0.640625 0
  0.765625   0.671875 0
  0.531250   0.734375 0
  0.796875   0.515625 0
  0.765625   0.640625 0
  0.531250   0.703125 0
  0.703125   1.000000 0
  0.765625   0.609375 0
  0.531250   0.671875 0
  0.765625   0.578125 0
  0.531250   0.640625 0
  0.546875   0.609375 0
  0.531250   1.000000 0
  0.890625   0.593750 0
  0.656250   0.656250 0
  0.781250   0.515625 0
  0.546875   0.578125 0
  0.531250   0.968750 0
  0.890625   0.562500 0
  0.656250   0.625000 0
  0.609375   0.968750 0
  0.781250   0.859375 0
  0.656250   0.593750 0
  0.750000   0.703125 0
  0.515625   0.765625 0
  0.781250   0.812500 0
  0.781250   0.781250 0
  0.593750   0.687500 0
  0.781250   0.750000 0
  0.593750   0.656250 0
  0.781250   0.718750 0
  0.531250   0.796875 0
  0.828125   0.562500 0
  0.593750   0.625000 0
  0.781250   0.687500 0
  0.828125   0.531250 0
  0.593750   0.593750 0
  0.812500   0.625000 0
  0.578125   0.687500 0
  0.781250   0.640625 0
  0.781250   0.609375 0
  0.593750   0.515625 0
  0.515625   0.781250 0
  0.812500   0.546875 0
  0.578125   0.609375 0
  0.812500   0.515625 0
  0.578125   0.578125 0
  0.750000   0.656250 0
  0.515625   0.718750 0
  0.750000   0.625000 0
  0.515625   0.687500 0
  0.687500   0.984375 0
  0.750000   0.593750 0
  0.515625   0.656250 0
  0.531250   0.546875 0
  0.750000   0.562500 0
  0.515625   0.625000 0
  0.531250   0.515625 0
  0.984375   0.515625 0
  0.750000   0.578125 0
  0.515625   0.531250 0
  0.828125   0.796875 0
  0.640625   0.703125 0
  0.828125   0.765625 0
[...]
CELL_DATA 7648
SCALARS scalar_value float 1
LOOKUP_TABLE default
0
0
0
0
0
0
0.00180774
0.00122393
0.00113264
0.000960771
-4.14086e-06
6.20683e-06
-1.55018e-06
1.37897e-05
-1.7809e-07
-9.10844e-08
-3.34854e-08
5.26429e-06
0
0
0
0
0
0
0
0
0
0
0
0
0
0
0
0
0
0
4.87761e-09
4.42225e-07
0
0
2.25597e-06
1.65229e-06
0
0
0
0
0
0
0
0
-2.38544e-10
0
0
0
0
0
1.02029e-10
1.14073e-10
0
0
0
0
-2.19616e-08
-8.69785e-09
-3.75983e-09
-5.53336e-09
-8.52181e-10
-3.88563e-10
-5.11645e-10
1.40297e-10
0
0
-2.93662e-10
0
0
0
0
0
0
0
0
0
0
0
0
0
0
0
0
0
-1.87685e-07
6.56553e-08
2.80915e-07
-1.19773e-07
2.39983e-07
1.50251e-07
1.51001e-07
1.60099e-08
-3.56806e-07
-2.86152e-07
-3.23822e-08
-6.77333e-08
3.87433e-09
-3.54685e-08
0
0
0
0
0
0
0
0
0
0
0
0
0
0
0
0.000142675
8.38503e-05
6.89764e-05
7.01954e-05
3.79871e-05
3.03833e-05
4.53742e-05
1.95982e-05
0
0
0
0
0
0
0
0
0.000309223
0.000880839
0.00159162
0.000838319
5.09251e-06
0
0
2.33506e-10
4.12421e-10
8.97697e-10
7.24995e-10
1.34602e-10
1.42779e-10
1.00362e-10
0
0
0
0
0
0
0
0
0
0
-7.31694e-08
8.26241e-08
3.81829e-06
3.76333e-06
1.56821e-06
5.58427e-06
0
4.58953e-06
2.92273e-06
1.82318e-06
3.1368e-06
0
0
0
0
0
0
5.29721e-05
1.62613e-05
2.24076e-05
-6.62381e-09
5.83743e-06
-8.40855e-07
-9.24467e-07
-1.72334e-06
0
0
0
0
0
0
0
0
0
-1.48426e-06
-1.25381e-07
-5.39966e-07
5.06548e-07
0
0
0
0
0.00127218
0.000898501
0.000857663
0.000663753
0
0
0.000588883
0.000435907
0.000303405
0.0004555
0.000446066
0.000224869
7.58375e-05
0.000245693
0.000333863
0.000222698
0.000215118
0.000160988
0
0
0
0
-1.04745e-10
-2.05854e-10
0
-2.02084e-09
-1.38179e-09
-2.23436e-10
-7.38674e-10
0.00232721
0.00217349
0.00300971
0.00157245
0
0
0
0
0.000644457
0.000587501
0.000818424
0.000419358
0
0
0
0
0
0
0
0
0
0
0
0
0
0
0
0
0
0
0
0
0
0
0
0
0
0
0
0
0
0
0
0
0
0
0
0
0
0
0
0
0
0
0
0
0
0
0
0
0
0
0
0
0
0
3.25683e-05
3.77475e-05
0
0
0
0
0
0.000157114
5.2577e-05
-1.60489e-10
0.000134299
0.00049137
7.01702e-05
0
0.00045976
-1.06654e-08
0
6.07999e-07
0
0
-2.90592e-10
0
0
0
0
0
1.16761e-10
0
0
0
0
1.61643e-10
0
0
1.20223e-05
1.09842e-05
0
0.000469321
-4.51096e-05
0.000400471
0.000126907
-5.67821e-06
0.0007435
0
0
0
0
0
0
0
0
0
-2.00909e-10
1.04666e-05
0
0.0002583
0
-2.19575e-05
0
0
0
0
0
6.34506e-10
0
0
0
1.499e-10
0
0
0
0
0
0
0
0
0
0
0
4.59583e-05
0
7.4961e-10
2.54315e-10
0
0
0
5.42173e-10
0
0
0
0
0
0
0
0
0
0
0
0
0
0
0
0
0
0.000209141
0
0.000147703
0
0
9.99928e-05
4.24634e-06
0
0.000172563
3.10927e-06
0
0
0
0
0
0
0
0
0
0
0.000400607
0
0
-1.13823e-10
2.05562e-10
4.32322e-09
-7.24193e-09
3.24868e-07
0
0
0
0
9.27965e-05
-5.30298e-07
0
0
0
0
0
0
5.70296e-06
0
0
0
0
0
0
0
0
0
0
0
0
3.38958e-10
4.13694e-10
0
0
0
0.000299653
0.00051255
9.37024e-09
1.5641e-08
0
0
0
0
0
0
4.93795e-10
0
0
0
0
0
6.58894e-10
0.00164635
0.00112295
2.20198e-08
0
0
0
0
2.45205e-10
3.83639e-08
8.08836e-10
7.59739e-10
1.53212e-09
1.56132e-08
1.54821e-06
0
0
0
0
0
0
0
0
0
0
0
0
8.18612e-09
0
1.48085e-08
0
0
1.90962e-05
1.60656e-08
2.65904e-08
0
0
0
0
0
0
0
0
0
0
0
0
0
0
0
0
0
-8.30586e-09
-2.13984e-08
0
0
0
0
0
0
0
0
-4.12717e-09
0
0
0
0
0
0
0
0
0
-8.19196e-10
1.11852e-05
0
9.26705e-05
0.000117766
0
0
0
0
0.000246133
0
-4.42244e-07
0
0
0
0
0
0
0
0
0
0
9.82894e-09
0
1.09314e-09
0
5.59758e-10
1.23341e-07
8.42694e-08
0
5.18686e-08
0
8.30125e-08
0
-9.16481e-06
6.38653e-08
4.5713e-08
0
0
0
0
-7.36495e-10
0
-3.36683e-10
-2.74088e-08
4.23032e-09
0
2.25026e-10
5.19054e-06
0
0
8.5723e-10
0
0
0
0
1.132e-08
0
0
-2.04669e-06
-1.26335e-06
0
0
1.7487e-08
0
0
0
0
0
0
0
1.15491e-05
0
2.6502e-05
0
0
0
0
0
-3.29482e-05
6.64286e-06
4.28059e-09
0
-5.14063e-10
1.29034e-09
9.38056e-08
6.84505e-09
0
0
1.5513e-10
0.000820269
0
0
0
0
0
2.34228e-07
0
0
0
0
0
0
0
0
-5.35368e-09
9.9692e-10
0
0.000146208
-1.3706e-09
-2.17039e-10
0
0
0
3.48795e-07
1.29055e-08
4.56692e-07
0
0.000247755
3.26134e-06
0
1.8859e-08
0
0
0
-3.33866e-10
0
-4.89549e-09
0
3.33268e-07
0
3.17536e-05
1.11547e-08
0
3.62391e-09
0
0
-1.38794e-10
0
0
-1.55414e-09
0
0
7.16073e-06
0
0
0
0
0
0
0
0
0
0
1.9129e-08
0
0
0
0
0
3.96779e-09
0
0
0
0
0
0
0
2.47635e-09
0
0
4.36218e-08
0
4.56026e-09
0
7.9559e-09
-1.26822e-05
0
0
7.98465e-07
-1.09371e-08
1.77774e-10
0
8.71541e-10
0
0
0
9.09649e-09
-1.97944e-10
0
0
2.84714e-08
-1.18306e-09
3.46165e-08
6.07407e-08
1.89441e-09
0
0
-7.27123e-10
0
0
0
1.3954e-09
0
9.25063e-09
0
0
0
0
0
2.65084e-06
0
0
0
0
-3.28119e-09
0
0
0
0
0
0
0
0
0
-8.06429e-08
0
-2.12906e-08
0
8.0489e-05
-1.11841e-06
0
2.18961e-10
3.85354e-05
1.55653e-07
0
1.22065e-06
0
3.14841e-09
0
0
0
0
0
3.30433e-09
0
2.2502e-09
0
0
0
0
0
0
0.00173944
0
0
3.51719e-10
0.00148255
0
0
0
6.34333e-10
0
0
0
-1.25903e-07
1.17742e-09
-6.85202e-10
0
9.56828e-06
0
0
2.25535e-07
0
0.000257131
0
0
0
0
3.33314e-07
0
0
0
0
0
-3.73782e-10
2.5155e-06
2.97774e-10
0
0.000976436
-1.56681e-07
0
0
-4.40838e-09
-1.40507e-10
0
1.30089e-09
0
0
0
0
0
0
0
0
0
0
8.83537e-10
0
0
2.80551e-10
0
0
0
0
1.8561e-10
0
0
3.50268e-10
0
0.000150492
0
2.51845e-10
0
0
0
-3.55568e-10
1.18925e-09
0
1.08836e-08
1.2655e-08
0
0.00211413
-1.77962e-05
0
0
6.8664e-10
0
-9.19786e-10
0
0
0
7.87175e-08
2.30646e-10
7.38125e-05
8.86497e-10
0
0
0
0
0
0
6.02355e-10
0
0
6.52174e-10
0
0
0
0
0
0
-4.87273e-07
0
-1.85261e-07
1.64404e-07
2.05405e-06
0
1.24528e-09
0
0
7.50109e-09
1.02832e-08
4.61336e-07
-1.49443e-08
6.21093e-09
0
3.07088e-07
0
0
8.58005e-07
-4.20848e-08
0
0
0
0
0
0
0
0
0
0
0
0
1.0708e-09
0
0
0
6.84166e-09
0
0
0
0
0
0
0
0
6.12227e-09
0
0
0
0
1.64567e-10
0
0
3.54583e-08
0
1.67105e-09
0
0
0
1.55402e-10
0
1.1019e-07
-1.81601e-08
0
-3.24796e-10
0
8.60381e-07
1.69267e-08
0
8.17007e-08
2.33851e-09
0
0
0
1.77374e-08
1.14822e-05
0
3.33182e-09
0
5.66549e-08
2.50611e-08
0
0
0
-8.18815e-06
0.000195633
1.90694e-08
0
1.53878e-07
0
0
0
0
0
1.26119e-08
2.05246e-08
0
1.60853e-09
0
-1.05355e-08
1.28752e-07
3.26318e-09
0
1.3974e-09
1.4891e-08
0
-2.09092e-10
0
4.51742e-08
0
3.43187e-09
1.17511e-07
0
0.00154538
0
0
0
4.11918e-10
0
-2.34295e-09
0
0
0
0
0
0
0
0
7.38644e-09
0
0
0
1.46622e-08
0
0
0
9.04429e-09
1.39686e-10
-1.14481e-09
0
0
0
-1.51684e-08
-2.43186e-08
-2.16717e-09
1.14392e-10
0
-2.08656e-05
0
4.50614e-05
0.000131489
-2.08085e-10
3.56573e-09
1.54972e-10
0
0
0
5.52999e-09
0
0
0
0
3.05689e-09
1.39629e-06
-4.43699e-09
6.20286e-07
0
0
0
0
0
0
0
0
0
1.20591e-07
0
0
0
0
2.29692e-10
0
0
1.88944e-09
0
-2.7002e-09
2.10719e-06
-1.58435e-08
0
-2.02567e-07
0
0
-7.38353e-10
0
0
2.06679e-08
0
0
0
0
0
0
0
0
4.03715e-07
0
1.1713e-06
0
0
8.0763e-09
0
0
5.12176e-06
0
-8.22243e-06
0
0
2.09209e-09
2.24002e-08
0
0
0
0
0
0
0
0
2.03951e-06
2.91872e-06
0
4.80993e-06
0
3.54218e-07
4.65676e-07
8.52533e-07
0
0
0
0
0
0
0
0
0
0
0
0
6.44075e-08
0
0
4.80326e-07
0
2.97724e-07
0
0
0
0
1.37671e-09
0
0
0
2.59149e-09
2.30928e-10
5.15352e-10
0
0
1.51521e-10
0
0
4.33636e-10
0
1.70465e-10
0
1.82925e-10
0
2.18875e-06
1.50978e-09
4.63215e-07
0
1.40684e-07
0
-6.37541e-07
0
7.26664e-07
0
5.11962e-08
0
1.17018e-09
0
-2.01492e-09
0
0
0
0
0
0
0
0
0
0
0
-4.56212e-10
0
0
0
0
0
4.89767e-10
0
7.86519e-06
7.98687e-07
0
5.86243e-06
0
0
2.68336e-07
-0.000119389
0
-2.55805e-08
0
2.27077e-08
-1.1805e-08
0
0
1.86128e-09
2.29794e-10
0
1.04786e-09
0
0
0
3.5648e-08
0
2.19153e-10
2.48804e-10
3.29012e-09
0
0
2.87747e-10
0
3.50336e-08
0
0
0
0
-2.47587e-10
0
0
0
0
0
1.58051e-07
0
1.66181e-09
0
0
0
0
0
6.53632e-10
6.18858e-09
1.27703e-06
0
0
0.000150008
3.97793e-10
0
0
0
0
0
0
0
0
0
0
4.94681e-07
1.17633e-07
0
3.92477e-09
2.69751e-08
1.4742e-08
-6.37104e-09
3.21906e-06
0
0
0
0
0
0
0
0
0
0
0
0
0
2.70833e-09
0
0
0
0
0
0
0
0
3.05112e-10
1.47848e-09
0
5.40321e-10
1.06756e-09
1.09504e-09
0
2.88175e-06
-3.06766e-06
0
0.000499419
3.01754e-05
0
3.30918e-05
0
0
0
-1.85677e-09
1.67839e-09
-1.92931e-06
0
3.59671e-06
3.28217e-08
2.50089e-06
8.01059e-06
0
0
0
0
2.71368e-08
4.46873e-08
-1.13021e-07
0
6.61814e-07
3.73382e-07
2.60019e-07
0
0
0
0
0
0
0
0
0
0
-5.8095e-08
1.07759e-06
-4.19704e-08
9.36037e-07
-4.70091e-08
-8.64113e-08
8.9315e-06
0
0
0
0
1.88363e-09
1.93077e-07
5.4097e-05
0
0
0
0
0
0
0
8.61118e-08
4.82253e-08
7.10255e-09
0
0
0
0
0
0
0
1.2656e-10
0
0
0
0
0
2.57593e-07
0
6.34385e-07
5.09893e-10
3.56253e-09
0
0
0
0
0
8.72954e-08
-1.01237e-08
4.13535e-07
1.50486e-06
0
0
0
-7.62537e-07
0
4.11083e-08
0
1.06615e-07
1.03435e-07
-5.37029e-09
0
0
0
0
0
7.85651e-10
1.64615e-06
1.07621e-06
2.09798e-09
0
-1.3553e-09
0
3.92751e-09
-3.3976e-09
1.98203e-07
7.9699e-09
-1.56587e-08
0
0
0
0
0
-5.61542e-08
1.40803e-07
0
4.25434e-07
0
0
0
1.84063e-07
7.13335e-09
0
1.10501e-08
0
0
0
0
0
0
0
0
0
0
0
-1.06236e-06
2.82265e-09
-2.11432e-06
-9.53041e-07
0
0
0
0
-3.62012e-06
-1.19207e-06
0
2.86014e-05
0
0
0
0
0
7.3114e-07
0
0
0
0
4.96195e-08
0
0
1.60778e-09
0
0
0
0
4.17836e-09
0
0
0
2.85183e-09
1.19942e-05
-1.77812e-07
-1.78456e-06
0
0
0
0
0
0
1.13777e-08
8.12578e-06
1.48464e-10
-3.5337e-07
4.79177e-06
0
0
0
0
0
0
0
0
0
0
0
0
0
0
5.45371e-06
6.88405e-05
0
4.15222e-05
0
1.04337e-08
2.33312e-08
0
0
-5.79555e-10
2.18741e-06
5.49241e-06
-1.52534e-07
-7.10516e-09
4.13992e-10
0
8.1653e-10
0
0
0
0
0
0
2.97855e-06
0
0
5.88943e-09
3.07789e-07
2.00065e-07
0
0
0
0
0
0
0
0
0
0
0
0
0
0
0
0
0
-2.21656e-07
-8.89947e-07
0
0
0
4.34947e-09
0
0
0
0
0
0
3.00378e-07
-5.11304e-07
0
0
0
0
0
0
0
4.09544e-09
0
0
0
0
2.01454e-05
9.30378e-08
-7.46494e-09
5.84103e-08
2.40356e-07
0
0
0
-5.04971e-10
-6.99561e-06
0
0
-2.22805e-05
-7.83738e-05
0
6.01965e-08
0
0
0
1.56903e-09
3.90115e-09
2.25903e-10
4.78061e-10
9.06518e-06
0
0
0
0
0
4.52418e-09
6.7303e-09
7.00814e-09
1.36335e-09
0
0
0
0
0
0
0
0
0
0
0
0
0
0
2.10935e-08
3.55322e-08
4.9063e-08
0
0
0
0
0
9.00028e-06
0
0
0
0
0
0
0
0
0
0
0
0
0
0
0
0
0
5.65596e-09
2.25498e-09
0
0
0
-1.08998e-08
1.04388e-06
0
0
0
0
0
0
0
0
0
0
4.31168e-09
0
0
1.34658e-05
1.27789e-05
1.62139e-05
2.02721e-09
4.75824e-10
-1.27365e-10
-2.92887e-06
4.06568e-05
-4.78515e-06
0
0
0
2.33567e-05
1.70901e-05
2.68068e-05
3.8774e-05
0
0
0
0
0
0
0
0
0
2.07887e-05
0
0
6.37842e-10
0
0
0
0
0
0
4.15917e-06
0
0
0
2.17908e-09
2.072e-06
1.24266e-06
1.17764e-06
0
0
0
0
0
7.11377e-08
1.55917e-07
2.70466e-07
0
0
0
6.20606e-10
0
0
1.17964e-08
2.55903e-08
0
1.75566e-10
4.74479e-08
7.95638e-08
-2.35563e-08
1.71489e-06
0
6.69747e-07
-4.25785e-07
1.35696e-06
7.24826e-08
0
1.46806e-07
0
0
0
0
0
0
0
0.000273643
0.000337009
2.70531e-10
0
0
0
0
0
0
0
0
0
0
0
0
0
0
0
1.87262e-07
0
-3.21984e-09
3.61421e-08
1.99354e-07
0
5.30721e-06
7.27936e-06
1.3274e-05
0
0
0
3.20459e-05
4.33479e-05
0
0
0
0
0
5.03624e-08
1.45289e-07
-6.54526e-08
-1.75332e-08
-2.21716e-08
0
0
0
0
-2.61951e-07
0
0
0
0
2.05637e-05
0.000133651
0
0
0
6.12056e-05
4.19565e-05
7.13515e-05
-2.44766e-09
6.79836e-05
9.98781e-05
0.000104018
0
0
9.57539e-09
-1.35493e-09
1.704e-08
7.71476e-09
0
0
0
-1.3903e-10
3.77276e-10
4.91487e-07
0
1.03994e-06
0
0
0
0
3.02173e-10
0
0
0
0
0
0
0
0
0
-3.99102e-09
0
0
0
0
0
2.8637e-09
0
0
0
0
0
0
0
0
3.37722e-06
1.83047e-06
0
0
0
0
0
0
0
0
0
0
0
0
-7.25728e-10
-4.25737e-10
0
0
1.37077e-05
2.5907e-05
1.93396e-05
1.79795e-05
9.1415e-07
6.37406e-07
0
0
0
0
0
0
0
0
0
0
0.000564515
-0.0457653
-0.0518811
-0.00628477
0.649671
0.689851
0.555667
0.2664
0.0977038
0.0305523
0.00879012
0.00467348
0.735828
0.728745
0.612984
0.456874
0.30998
0.195301
0.116037
0.0658076
0.0359813
0.0191402
0.0100125
0.00519784
6.0252e-05
-0.000700192
0.0603607
-0.110136
0.176664
0.348517
0.748853
0.698025
0.560747
0.402944
0.162503
0.0517917
0.0141768
0.00369374
0.561242
0.736628
0.729769
0.608975
0.449209
0.301275
0.187253
0.109367
0.0606699
0.0322617
0.0166099
0.00840337
0.00423446
0.000285459
0.00346648
-0.0550116
0.0660296
0.151601
0.650844
0.693096
0.547058
0.386186
0.249775
0.150407
0.0852658
0.045863
0.0235479
0.00552795
0.760771
0.736808
0.60136
0.434569
0.285965
0.174422
0.0997426
0.0538383
0.0275111
0.013296
0.00603065
0.00249952
1.74772e-05
-0.00117863
0.00467923
-0.0478323
0.0704569
-0.0643241
0.779538
0.520983
0.356329
0.223972
0.131081
0.0718893
0.0369396
0.0176268
0.00761551
0.000784686
0.69747
0.80679
0.728316
0.561293
0.385952
0.242829
0.141852
0.0774433
0.0394394
0.0184695
0.0076326
0.00245397
0.000341594
8.4396e-06
0.000314398
0.00295574
0.00748332
-0.0882505
0.0668483
0.29365
0.688979
0.535099
0.240791
0.14176
0.0776888
0.0396079
0.0185063
0.00758235
0.000282764
-0.0139082
-0.0182073
0.428475
0.611553
0.567802
0.442641
0.302244
0.186094
0.105264
0.0552207
0.0268099
0.0117892
0.00438941
0.00108434
-0.000103275
-0.000209704
-1.33495e-05
-0.00116152
0.00531393
0.04887
0.0338446
0.0496579
0.399294
0.477115
0.420842
0.256074
0.091517
0.0185158
0.00583132
0.00059446
-0.00106161
-0.00123283
-0.000903859
-8.77487e-05
-5.95815e-05
-0.00460656
0.0512231
-0.108941
0.231828
0.224589
0.171585
0.117603
0.0702181
0.0361418
0.0156938
0.00523767
0.000681974
-0.000885348
-0.0011278
-0.000885004
-0.000540949
-0.000252788
-6.27663e-05
-4.32948e-05
0.000397769
0.00207177
-0.0188824
0.00222659
-0.0830046
0.0513809
0.35408
0.266549
0.231015
0.175739
0.0847069
0.0374986
0.0134006
0.00687015
0.00302071
0.0010709
0.000113672
0.000145477
-0.0191068
-0.00460637
0.173981
0.492936
0.481265
0.427985
0.34796
0.264337
0.190002
0.129272
0.08262
0.0490128
0.026557
0.0128022
2.98381e-06
1.22957e-06
2.30981e-10
1.42032e-08
1.25673e-09
-2.52938e-09
-1.39798e-09
-9.00441e-09
-2.5863e-08
1.52365e-08
-1.54421e-06
-3.7642e-07
-7.53717e-07
-5.32876e-07
-1.14729e-06
1.9836e-06
-3.92034e-07
-1.85139e-06
-1.94449e-06
-7.18787e-07
4.60188e-07
8.113e-08
-1.8241e-07
-8.2375e-08
7.34434e-09
-2.11309e-07
6.39295e-08
1.18258e-06
-7.9632e-07
0
-3.95056e-07
0
-1.66615e-08
0
-1.23342e-09
1.16084e-09
0
-7.40618e-09
-2.72079e-08
8.16971e-08
0.0052295
1.86889e-07
0.000327043
2.72197e-07
-3.50165e-07
-3.14883e-07
4.04999e-07
4.6895e-07
1.76593e-07
-7.57125e-08
-1.62584e-07
-5.13334e-08
1.28753e-09
1.66769e-08
-6.78282e-09
0.00011692
0.0866349
1.00397e-07
0.0235751
0.00314453
-2.44301e-07
-1.41261e-07
2.10707e-07
0
1.3536e-07
0
0.000751241
0.584875
-2.479e-10
3.06955e-10
0.72435
0
0.454552
-1.0976e-10
-4.13011e-10
1.22006e-08
0.322869
0.0394758
1.86185e-08
-3.21561e-09
0.0074646
3.30355e-10
0.00011549
-7.42619e-09
1.29213e-07
-2.61567e-08
-8.43006e-08
-3.98407e-08
-6.40569e-09
1.5241e-08
4.36748e-08
5.42735e-08
5.09469e-08
8.82459e-10
0.625005
1.17379e-09
-1.05634e-05
0.0747794
-2.402e-08
0.0211234
0.00305764
7.08272e-08
-7.37904e-09
0
-4.96436e-08
0
-9.69913e-09
0
0
0.00418378
0.659481
0
0.663317
0
0.347954
0
0.143303
-1.57014e-10
0.0500958
-1.36009e-10
0.0603097
0.0273231
-9.82671e-09
-1.25623e-08
0.00576872
1.8233e-08
2.02661e-09
-5.63701e-09
2.21199e-08
2.01146e-08
8.4753e-09
-1.39185e-09
-6.74717e-09
-8.73274e-09
-1.08138e-08
-1.38238e-08
0
-1.92825e-08
-1.52423e-08
0
0.701352
9.58357e-10
0.0120412
0.00267291
-1.2789e-08
6.83945e-09
0
3.17403e-09
0
0
0.708003
0
0.469776
0
0.202418
2.15208e-08
-0.329276
0.0148701
-9.15207e-09
-2.71944e-08
0.00379501
-1.91452e-08
3.62814e-09
-3.94202e-09
-6.30163e-09
-3.26696e-09
-2.38631e-10
1.59773e-09
2.21575e-09
2.49976e-09
0
3.80835e-09
0
0.315098
3.82694e-09
-3.19523e-10
0
0
0
0
0.544431
0
-2.4393e-06
0.36347
0
1.87443e-08
6.21473e-09
0.00617717
-1.85557e-08
1.03793e-09
6.3586e-09
8.9435e-10
0
-2.47394e-09
0
-8.47828e-06
-2.44257e-09
-2.23065e-09
-2.23721e-09
-2.19025e-09
-1.44465e-06
0
0.345268
-2.10112e-10
0
0
0.717543
0
0.59402
0
0.208553
0
0.0135695
7.98103e-09
-0.172454
0.00733813
1.98971e-09
-4.33748e-09
-6.34708e-09
-1.88574e-09
1.9208e-09
1.17868e-09
-3.28804e-10
-5.70565e-10
-6.11462e-10
-6.5835e-10
0
0
-0.232199
-7.9057e-10
0
0.596697
2.99018e-10
0
0
0
0
0.192168
0
2.98086e-07
0.0661533
-1.37841e-09
-1.12755e-07
0.0093423
3.25585e-09
0.00278318
3.60632e-09
-1.17372e-09
3.48161e-10
0
6.8739e-10
0
-9.38488e-05
0
0
0
0.317006
0
-9.18307e-10
0
-0.00804181
0
-1.38141e-09
-3.92394e-06
0
-6.65424e-10
0
-0.00300567
0
-1.01672e-09
9.39254e-08
0
0
2.15656e-08
0
0
0
0.00541602
3.53165e-08
0
3.20002e-10
-0.000426747
-6.58674e-05
-3.07935e-08
2.96727e-05
0
0.00023812
-9.16236e-08
0
0
-0.00127169
-0.000168975
9.71933e-08
-1.08677e-05
-1.91591e-06
0
-0.00156412
2.90769e-07
-0.000905913
0
0.00392768
1.93992e-07
-1.14532e-05
0.0892275
0
-0.00557315
-6.44616e-08
-0.00151284
0
-9.25396e-09
-2.3005e-05
0.0520304
-2.53451e-07
-0.00106324
-7.78325e-08
3.98858e-07
0
0
0.000209043
5.25406e-08
4.03673e-06
-0.111284
2.41679e-08
0.00637754
3.51327e-07
0
0.161886
8.66881e-08
0
-0.00180151
-4.61785e-08
-0.0499678
1.28838e-07
1.72011e-07
0.271264
0
3.691e-08
-2.8661e-08
0
-0.0161569
3.69072e-08
0.166782
-2.92065e-08
-3.99439e-08
0
1.9467e-09
-0.00249973
-0.0473285
8.26245e-07
0
-0.0378095
-5.85503e-10
-1.98342e-06
0.00402408
0
0
-0.477532
0
-4.32241e-05
0.00346002
0
1.42552e-10
1.29762e-05
0
-0.03945
-1.71707e-10
0
1.69997e-05
-1.53132e-10
0
0.000414681
0.625703
-0.0190091
0
0.0524256
0
2.14664e-07
2.28878e-07
0.0132515
-0.000116874
-0.19921
0
0
-4.97608e-10
0
0.528924
1.77319e-07
0.0774038
0.000496425
-0.495928
0
0
5.55777e-10
0.351588
0.00298605
0
8.15675e-10
0.530617
5.49752e-08
-0.000701798
0
1.08915e-09
0
0
0
0
-0.000270966
2.52712e-05
-3.22666e-10
-1.6163e-08
0
0
0
0.000557095
0.000983819
-5.36403e-10
0
0
0.000667153
0
-4.79598e-05
5.86218e-09
0
-0.00012595
1.63718e-10
0.00395723
-2.44149e-08
0.00388237
0
0.0730365
0.0631501
0
-3.35711e-10
-0.000485814
-7.00332e-10
0
0.530427
9.23804e-09
-0.0151416
0
0.546572
1.09778e-07
0.199128
0
-0.000163353
0.0874929
0
-0.00839975
0
0.753863
0.363502
0
0
0.670663
1.29416e-06
0.079521
0
1.64574e-08
0
-0.118675
-7.14376e-10
-0.129512
2.0785e-07
0
-0.276157
0
4.8858e-05
0.0554499
0.0470777
0
-0.0188631
0.462148
0
0.435268
0
-0.000978144
0.0164888
0.0219252
0
0.139025
-0.0489377
0
0.316433
0
-0.492787
0
-0.000125228
0.126699
0
1.45831e-10
0.000998777
4.20866e-10
5.13535e-08
0.00265955
-0.0814244
0
-0.00295206
0.0468907
0
-5.58145e-10
0.00110406
0
-0.0845809
8.45772e-05
-9.31919e-10
1.12047e-08
-5.5889e-06
0.0379352
0
9.44012e-09
0
-0.535897
0
0
0.000769594
0.127092
2.94379e-08
0.0489177
0
0
-3.97981e-06
0.315594
0
0.0128153
-7.16178e-07
0
0
0.575961
0
0.000251465
5.50986e-07
-0.000335545
0.00931431
0
-5.21632e-06
-2.88366e-06
1.05563e-10
0
-0.00148433
-1.34001e-06
0.0523963
0
-2.08028e-06
-3.74785e-05
0
-5.41348e-08
0
0.111793
0
2.7502e-06
0.0484986
-7.3699e-05
0
0
-0.126301
0.012705
2.394e-10
-0.00204688
2.17038e-08
0
-0.286708
0
2.15498e-06
0.0102775
0.00051388
0
0.269736
-0.0066856
1.50033e-10
-1.58044e-09
0.315358
0.304921
-1.89151e-10
2.83678e-05
0
-7.5969e-10
-3.3427e-05
0
-0.125425
0.135776
-1.58891e-06
1.14998e-08
-0.145813
0
0.165514
0.117062
0
0
2.97589e-10
0.0717971
9.95355e-09
0.401395
0.393133
-0.0886354
-3.63966e-08
0
0.00371581
1.16305e-08
0
1.88559e-10
-0.02836
0
0.000249408
-0.0477196
9.39867e-09
0.033005
-3.82385e-07
0
-1.67835e-10
-0.00263836
0
0.0314821
0
0.00308538
0
-2.40527e-10
0.00547752
0
0.00012593
5.30821e-09
2.39258e-06
0
-0.00317831
0.289095
1.26243e-10
0
-4.04722e-05
-2.70374e-08
-6.92567e-05
4.18673e-07
0
1.40625e-05
0.145278
8.42336e-07
1.02168e-10
-0.165977
-1.11509e-10
0.0501466
-2.18814e-08
0.0520241
0
0.224109
-5.1324e-08
0.00040611
-2.91534e-10
0.229317
-2.86777e-05
0
-0.520059
-0.513403
0
0
-0.00130985
-0.00251913
-8.97671e-09
-0.00566424
0
-0.458011
5.10983e-07
0.0348046
-0.0014903
-0.0413421
-4.725e-08
-0.0436707
0
-2.21749e-08
0
5.07491e-09
0
-0.00132037
-5.50544e-08
-0.460631
0
0
-1.22084e-10
0.697629
0.257602
-3.67692e-08
0.000109556
-0.205598
0
0
-2.0973e-10
0.0779349
-0.357156
0.323658
0
0.20607
0
4.47421e-10
0.000803388
0.0273043
-0.37854
-0.446429
0
0.0736556
-0.000697804
-1.03201e-09
0
0.0497002
-5.84308e-06
-0.00117837
3.1987e-07
1.69168e-10
0
0.00959117
0.0119641
-2.11387e-10
0
-3.13793e-06
-0.144865
-2.95959e-06
0.00459923
1.20946e-05
1.52011e-10
0
0
-0.0203645
0
1.55056e-10
-7.21861e-06
0
-0.05156
1.15889e-10
0.260532
0
0.502581
-0.413884
0
0.00134692
0.0865793
0
6.55147e-10
-0.00154912
-2.97635e-10
-9.74651e-05
0
0.0454514
-0.291549
0
-0.000131932
0.228069
0
-4.79818e-09
0.0016086
-0.0155046
7.60436e-08
-0.0149123
0
-2.23336e-10
0.00101254
0
0
0
0.00114521
-2.51329e-08
0
0
0
-2.07392e-10
0
9.47838e-10
0.606303
0.592836
0
0
3.5579e-10
0.0182248
4.75155e-10
-0.235236
0.754258
2.91121e-10
-0.249906
-0.0132907
0
4.20433e-10
-0.293937
0.00231281
0
5.65594e-10
-0.0708216
4.29975e-09
-2.76894e-06
6.78642e-10