# vtk DataFile Version 2.0
Unstructured Grid by M++
ASCII
DATASET UNSTRUCTURED_GRID
POINTS 4072 float
  0.828125   0.890625 0
  0.875000   0.531250 0
  0.828125   0.750000 0
  0.593750   0.968750 0
  0.828125   0.671875 0
  0.828125   0.875000 0
  0.593750   0.937500 0
  0.828125   0.656250 0
  0.828125   0.640625 0
  0.828125   0.843750 0
  0.593750   0.906250 0
  0.828125   0.625000 0
  0.781250   0.968750 0
  0.828125   0.609375 0
  0.828125   0.812500 0
  0.593750   0.875000 0
  0.593750   0.828125 0
  0.593750   0.796875 0
  0.828125   0.703125 0
  0.593750   0.765625 0
  0.828125   0.937500 0
  0.812500   0.875000 0
  0.859375   0.515625 0
  0.812500   0.734375 0
  0.812500   0.937500 0
  0.578125   1.000000 0
  0.578125   0.750000 0
  0.812500   0.687500 0
  0.578125   0.953125 0
  0.812500   0.656250 0
  0.812500   0.859375 0
  0.578125   0.921875 0
  0.812500   0.828125 0
  0.578125   0.890625 0
  0.812500   0.593750 0
  0.812500   0.796875 0
  0.578125   0.859375 0
  0.578125   0.812500 0
  0.578125   0.781250 0
  0.796875   1.000000 0
  0.796875   0.859375 0
  0.796875   0.718750 0
  0.562500   0.984375 0
  0.562500   0.937500 0
  0.796875   0.843750 0
  0.562500   0.906250 0
  0.796875   0.812500 0
  0.562500   0.875000 0
  0.796875   0.578125 0
  0.796875   0.781250 0
  0.562500   0.843750 0
  0.812500   0.984375 0
  0.562500   0.796875 0
  0.812500   0.953125 0
  0.562500   0.765625 0
  0.796875   0.937500 0
  0.546875   0.750000 0
  0.781250   0.984375 0
  0.828125   0.593750 0
  0.781250   0.843750 0
  0.781250   0.937500 0
  0.546875   1.000000 0
  0.781250   0.703125 0
  0.546875   0.968750 0
  0.546875   0.921875 0
  0.781250   0.828125 0
  0.546875   0.890625 0
  0.781250   0.796875 0
  0.546875   0.859375 0
  0.781250   0.562500 0
  0.781250   0.765625 0
  0.546875   0.828125 0
  0.796875   0.968750 0
  0.546875   0.781250 0
  0.765625   1.000000 0
  0.765625   0.968750 0
  0.531250   0.984375 0
  0.765625   0.687500 0
  0.531250   0.953125 0
  0.531250   0.937500 0
  0.531250   0.906250 0
  0.765625   0.812500 0
  0.531250   0.875000 0
  0.765625   0.781250 0
  0.531250   0.843750 0
  0.781250   1.000000 0
  0.765625   0.546875 0
  0.765625   0.750000 0
  0.531250   0.812500 0
  0.781250   0.953125 0
  0.531250   0.765625 0
  0.515625   0.750000 0
  0.750000   0.984375 0
  0.750000   0.953125 0
  0.796875   0.593750 0
  0.796875   0.562500 0
  0.750000   0.843750 0
  0.750000   0.937500 0
  0.515625   1.000000 0
  0.750000   0.906250 0
  0.515625   0.968750 0
  0.750000   0.671875 0
  0.750000   0.875000 0
  0.515625   0.937500 0
  0.515625   0.921875 0
  0.515625   0.890625 0
  0.750000   0.796875 0
  0.515625   0.859375 0
  0.750000   0.765625 0
  0.515625   0.828125 0
  1.000000   0.718750 0
  0.750000   0.531250 0
  0.750000   0.734375 0
  0.515625   0.796875 0
  0.734375   1.000000 0
  0.734375   0.968750 0
  0.734375   0.937500 0
  0.781250   0.578125 0
  0.781250   0.546875 0
  0.968750   0.578125 0
  0.734375   0.828125 0
  0.968750   0.546875 0
  0.734375   0.796875 0
  0.734375   0.765625 0
  0.968750   0.671875 0
  0.734375   0.734375 0
  0.968750   0.640625 0
  0.734375   0.703125 0
  0.968750   0.609375 0
  0.734375   0.671875 0
  0.734375   0.656250 0
  0.734375   0.625000 0
  0.968750   0.531250 0
  0.734375   0.593750 0
  0.984375   0.734375 0
  0.984375   0.703125 0
  0.734375   0.515625 0
  0.718750   0.984375 0
  0.718750   0.953125 0
  0.718750   0.921875 0
  0.953125   0.562500 0
  0.718750   0.812500 0
  0.953125   0.531250 0
  0.718750   0.781250 0
  0.718750   0.750000 0
  0.953125   0.656250 0
  0.718750   0.718750 0
  0.953125   0.625000 0
  0.718750   0.687500 0
  0.953125   0.593750 0
  0.718750   0.656250 0
  0.671875   1.000000 0
  0.718750   0.640625 0
  0.718750   0.609375 0
  0.953125   0.515625 0
  0.718750   0.578125 0
  0.968750   0.718750 0
  0.968750   0.687500 0
  0.953125   0.671875 0
  0.703125   0.968750 0
  0.703125   0.937500 0
  0.937500   0.656250 0
  0.703125   0.906250 0
  0.937500   0.546875 0
  0.703125   0.796875 0
  0.937500   0.515625 0
  0.703125   0.765625 0
  0.937500   0.671875 0
  0.703125   0.734375 0
  0.937500   0.640625 0
  0.703125   0.703125 0
  0.937500   0.609375 0
  0.703125   0.671875 0
  0.937500   0.578125 0
  0.703125   0.640625 0
  0.656250   0.984375 0
  0.703125   0.625000 0
  0.703125   0.593750 0
  0.718750   0.796875 0
  0.953125   0.734375 0
  0.812500   1.000000 0
  0.859375   0.656250 0
  0.703125   0.781250 0
  0.937500   0.718750 0
  0.953125   0.703125 0
  0.796875   0.984375 0
  0.843750   0.640625 0
  0.812500   0.968750 0
  0.859375   0.625000 0
  0.796875   0.953125 0
  0.843750   0.609375 0
  0.687500   0.953125 0
  0.687500   0.921875 0
  0.687500   0.890625 0
  0.921875   0.734375 0
  0.687500   0.796875 0
  0.687500   0.781250 0
  0.921875   0.703125 0
  0.687500   0.765625 0
  0.687500   0.750000 0
  0.921875   0.656250 0
  0.687500   0.718750 0
  0.921875   0.625000 0
  0.687500   0.687500 0
  0.921875   0.593750 0
  0.687500   0.656250 0
  0.640625   1.000000 0
  0.921875   0.562500 0
  0.687500   0.625000 0
  0.640625   0.968750 0
  0.687500   0.609375 0
  0.687500   0.578125 0
  0.937500   0.687500 0
  0.921875   0.671875 0
  0.671875   0.921875 0
  0.906250   0.656250 0
  0.671875   0.906250 0
  0.671875   0.875000 0
  0.906250   0.718750 0
  0.671875   0.781250 0
  0.671875   0.765625 0
  0.671875   0.734375 0
  0.906250   0.640625 0
  0.671875   0.703125 0
  0.906250   0.609375 0
  0.671875   0.671875 0
  0.906250   0.578125 0
  0.671875   0.640625 0
  0.625000   0.984375 0
  0.671875   0.609375 0
  0.625000   0.953125 0
  0.671875   0.593750 0
  0.671875   0.562500 0
  0.765625   0.953125 0
  0.812500   0.609375 0
  0.656250   1.000000 0
  0.656250   0.953125 0
  0.656250   0.906250 0
  0.890625   0.640625 0
  0.656250   0.890625 0
  0.656250   0.859375 0
  0.890625   0.734375 0
  0.656250   0.796875 0
  0.812500   0.921875 0
  0.562500   1.000000 0
  0.625000   0.828125 0
  0.812500   0.843750 0
  0.843750   0.593750 0
  0.812500   0.812500 0
  0.625000   0.718750 0
  0.828125   0.687500 0
  0.640625   0.593750 0
  0.812500   0.781250 0
  0.625000   0.687500 0
  0.765625   0.828125 0
  0.640625   0.562500 0
  0.812500   0.750000 0
  0.562500   0.828125 0
  0.781250   0.875000 0
  0.546875   0.937500 0
  0.781250   0.671875 0
  0.781250   0.593750 0
  0.546875   0.656250 0
  0.796875   0.750000 0
  0.562500   0.812500 0
  0.796875   0.546875 0
  0.765625   0.796875 0
  0.765625   0.593750 0
  1.000000   0.531250 0
  0.812500   0.718750 0
  0.859375   0.562500 0
  0.625000   0.625000 0
  0.812500   0.703125 0
  0.812500   0.906250 0
  0.578125   0.968750 0
  0.984375   0.593750 0
  0.828125   0.578125 0
  0.828125   0.781250 0
  0.593750   0.843750 0
  0.812500   0.671875 0
  0.625000   0.578125 0
  0.796875   0.671875 0
  0.562500   0.734375 0
  0.984375   0.562500 0
  0.828125   0.546875 0
  0.812500   0.640625 0
  0.750000   0.812500 0
  0.625000   0.546875 0
  0.796875   0.640625 0
  0.562500   0.703125 0
  0.828125   0.515625 0
  0.781250   0.734375 0
  0.546875   0.796875 0
  0.781250   0.531250 0
  0.750000   0.781250 0
  0.625000   0.515625 0
  0.796875   0.609375 0
  0.562500   0.671875 0
  0.765625   0.656250 0
  0.765625   0.859375 0
  0.531250   0.921875 0
  0.812500   0.578125 0
  0.562500   0.656250 0
  0.984375   0.687500 0
  0.750000   0.750000 0
  0.812500   0.562500 0
  0.812500   0.765625 0
  0.578125   0.828125 0
  0.562500   0.625000 0
  0.984375   0.656250 0
  0.750000   0.718750 0
  0.812500   0.531250 0
  0.781250   0.656250 0
  0.546875   0.718750 0
  0.781250   0.625000 0
  0.546875   0.687500 0
  0.750000   0.640625 0
  0.796875   0.531250 0
  0.562500   0.593750 0
  0.984375   0.625000 0
  0.750000   0.687500 0
  0.546875   0.984375 0
  0.609375   0.812500 0
  0.796875   0.875000 0
  0.546875   0.953125 0
  0.609375   0.578125 0
  0.843750   0.515625 0
  0.765625   0.515625 0
  0.765625   0.718750 0
  0.531250   0.781250 0
  0.984375   0.546875 0
  0.750000   0.609375 0
  0.796875   0.828125 0
  0.671875   0.968750 0
  0.796875   0.796875 0
  0.796875   0.765625 0
  0.609375   0.671875 0
  0.796875   0.734375 0
  0.546875   0.812500 0
  0.796875   0.703125 0
  0.843750   0.546875 0
  0.609375   0.609375 0
  0.796875   0.687500 0
  0.562500   0.953125 0
  0.796875   0.656250 0
  0.609375   0.562500 0
  0.796875   0.625000 0
  0.609375   0.531250 0
  0.546875   0.640625 0
  0.765625   0.671875 0
  0.531250   0.734375 0
  0.796875   0.515625 0
  0.765625   0.640625 0
  0.531250   0.703125 0
  0.703125   1.000000 0
  0.765625   0.609375 0
  0.531250   0.671875 0
  0.765625   0.578125 0
  0.531250   0.640625 0
  0.546875   0.609375 0
  0.531250   1.000000 0
  0.890625   0.593750 0
  0.656250   0.656250 0
  0.781250   0.515625 0
  0.546875   0.578125 0
  0.531250   0.968750 0
  0.890625   0.562500 0
  0.656250   0.625000 0
  0.609375   0.968750 0
  0.781250   0.859375 0
  0.656250   0.593750 0
  0.750000   0.703125 0
  0.515625   0.765625 0
  0.781250   0.812500 0
  0.781250   0.781250 0
  0.593750   0.687500 0
  0.781250   0.750000 0
  0.593750   0.656250 0
  0.781250   0.718750 0
  0.531250   0.796875 0
  0.828125   0.562500 0
  0.593750   0.625000 0
  0.781250   0.687500 0
  0.828125   0.531250 0
  0.593750   0.593750 0
  0.812500   0.625000 0
  0.578125   0.687500 0
  0.781250   0.640625 0
  0.781250   0.609375 0
  0.593750   0.515625 0
  0.515625   0.781250 0
  0.812500   0.546875 0
  0.578125   0.609375 0
  0.812500   0.515625 0
  0.578125   0.578125 0
  0.750000   0.656250 0
  0.515625   0.718750 0
  0.750000   0.625000 0
  0.515625   0.687500 0
  0.687500   0.984375 0
  0.750000   0.593750 0
  0.515625   0.656250 0
  0.531250   0.546875 0
  0.750000   0.562500 0
  0.515625   0.625000 0
  0.531250   0.515625 0
  0.984375   0.515625 0
  0.750000   0.578125 0
  0.515625   0.531250 0
  0.828125   0.796875 0
  0.640625   0.703125 0
  0.828125   0.765625 0
[...]
CELL_DATA 7648
SCALARS scalar_value float 1
LOOKUP_TABLE default
-3.83923e-08
-5.53073e-08
-4.62144e-10
-1.76911e-09
0
-1.82269e-10
0.273561
0.217272
0.217503
0.0800546
0.20294
0.203977
0.251731
0.0794153
0.107442
0.242336
0.0966494
0.252342
0.0188007
0.0115308
0.0165397
0.0141524
0.0083735
0.00402418
0.000482169
0.000227526
0.00027538
5.62062e-05
0.000154023
7.10161e-05
8.44431e-05
1.76981e-05
4.4932e-09
-3.26644e-09
-2.60114e-08
-6.50739e-09
0.23237
0.409979
3.42057e-08
-2.12709e-08
0.401763
0.427086
8.50383e-05
9.111e-05
1.13106e-08
-1.62439e-08
-7.78878e-08
-9.20875e-08
2.79753e-07
4.51017e-07
-1.06635e-06
-7.42247e-07
4.04487e-07
-1.86784e-07
-1.35783e-06
-1.42439e-06
0.0374259
0.0467684
0.0300272
0.0380057
0.0243945
0.0137466
0.000172943
0.000102933
-1.55695e-05
9.23276e-05
-2.82213e-05
2.39091e-07
-2.82603e-06
-3.12237e-05
9.00333e-06
-2.2219e-05
1.07451e-05
0.0234531
0.000450959
-2.91824e-08
-2.16038e-08
5.87419e-09
6.08941e-09
-4.11302e-09
-2.34161e-08
-1.80427e-08
-1.62112e-09
1.08963e-07
4.51393e-08
2.85357e-08
4.25723e-08
5.07775e-08
2.91059e-08
1.34218e-08
-6.22712e-05
-3.65493e-06
-6.95105e-05
2.06939e-05
-0.000123592
-0.000147665
-3.57266e-05
-7.6524e-05
0.000676262
-0.000372206
0.000385433
8.89958e-05
-0.000128152
0.000105981
0.00840154
0
1.53964e-10
1.88562e-10
8.66124e-10
3.92634e-10
6.59601e-10
0
8.06036e-10
6.11983e-10
4.97788e-09
-1.53957e-09
8.16417e-10
1.48729e-09
-3.06621e-10
-0.436778
-0.432192
-0.407327
-0.414712
-0.33091
-0.267684
-0.331131
-0.116572
2.96315e-10
0
1.00516e-09
-3.18871e-10
9.56096e-10
1.11915e-10
6.19003e-10
-2.54816e-10
0.107462
0.0461005
0.170159
0.0179185
0.319682
0
0
-2.94998e-05
-7.83386e-05
-0.000309981
-0.000447119
-0.000200999
-0.000128126
0.0263627
0.0252679
0.0259113
1.42959e-05
6.08576e-07
1.09917e-05
-6.38005e-06
2.85977e-06
2.04819e-06
2.07375e-06
2.68167e-06
0.00026583
-0.000168478
0.420429
0.382848
0.547576
0.208899
0.000293697
0.184134
0.263576
0.363305
0.170047
0
0
0
0
-3.47299e-09
-9.38927e-10
-0.182679
-0.109027
-0.158424
-0.0280996
-0.0696876
-0.0176254
-0.0121477
-0.0157194
1.56147e-05
1.1928e-05
-3.44884e-05
9.29505e-06
5.46133e-06
3.24423e-06
-1.31428e-05
0.000120462
8.9429e-06
-0.00324896
0.000583429
-0.00629474
0.0026318
-2.72472e-09
-4.68541e-10
-1.64558e-09
9.67262e-10
0.233596
0.199172
0.14905
0.121464
3.49583e-09
1.15618e-09
-0.0261324
-0.0833512
-0.262497
0.0124824
-0.19995
-0.363633
-0.177156
-0.351882
-0.0629428
-0.184098
-0.2837
-0.221563
2.97646e-06
-3.0106e-06
-1.19939e-05
-1.02707e-05
1.74655e-05
2.4631e-05
3.67663e-05
6.6377e-06
9.53756e-06
-2.62703e-05
-2.75764e-05
0.338493
0.355377
0.371741
0.287782
5.93022e-09
-4.30988e-10
3.59244e-09
-2.75718e-09
-0.00384411
-0.0179268
0.071417
-0.179541
1.75752e-09
-4.90002e-10
2.75406e-10
-9.93417e-10
-1.31127e-05
-1.47808e-05
-1.96019e-09
-8.406e-10
4.67937e-10
-1.15514e-09
1.38458e-10
-3.40252e-10
0
-3.4581e-10
0
0
0
1.82878e-09
2.63615e-10
1.36753e-09
-4.9151e-10
-5.42758e-10
-3.98007e-09
-3.18501e-10
-3.32537e-10
0
-3.65987e-10
1.78393e-10
0
4.40414e-05
2.35074e-05
-4.14043e-05
6.18817e-06
1.2859e-06
5.36631e-06
-2.17865e-06
0.0121117
0.0105384
0.0100914
1.00644e-06
5.46756e-06
-2.68105e-06
3.59108e-06
2.25704e-06
-9.94399e-07
4.73941e-07
2.42445e-07
4.38157e-07
1.83191e-09
6.5986e-09
1.37225e-09
1.52373e-08
0.000304286
0.000139702
-0.262742
-0.158753
1.12471e-08
-1.99081e-08
1.34011e-07
0.0358131
-3.75138e-05
-0.000318273
0.00937341
3.68172e-05
0.0652868
-0.0618859
0.0309053
-3.81689e-05
-0.148526
0.162348
-1.58772e-06
0.527786
5.65926e-06
1.48361e-06
-2.1277e-06
0
0
-7.36198e-06
0.00441861
9.38141e-07
0.0401681
0.0208314
-9.52813e-08
2.57181e-09
7.38315e-08
0.0214111
2.72834e-05
-0.000924539
0.0554313
0.11411
-1.35911e-07
-0.074895
0.210255
-0.26446
-0.170997
-9.46965e-05
-0.102129
1.0811e-07
6.6466e-08
2.52373e-07
0.000665145
1.67819e-07
-1.03761e-07
2.19058e-08
4.02404e-08
0.000159418
-3.90636e-07
0.0102371
-2.24822e-06
-0.191113
0
0.00344141
4.65585e-06
2.08595e-07
2.73744e-07
0.000381996
8.95006e-05
0.0953257
-6.0132e-07
-5.4906e-07
-9.11982e-08
0.0415428
-3.35586e-08
0.00890296
1.21263e-05
1.64281e-05
7.85461e-06
-0.00229414
2.78405e-08
0.00011164
0.000105483
0
-3.52102e-08
-0.282238
4.96723e-06
0.0984572
0.0633546
-1.18787e-06
0.03734
2.49814e-09
0.102574
0
0
0
-7.84923e-08
1.40054e-07
1.82369e-08
-0.000595163
-0.000497316
0.000203048
0.00535582
1.22703e-08
-0.000367955
0.0150326
0.011157
-0.00078023
2.36112e-08
9.43798e-09
-0.368463
-7.82122e-10
-0.4014
-6.29918e-10
-0.000722325
-0.426561
0.00215339
-8.67086e-10
-0.390558
-0.000800871
0
0.000848014
-3.29227e-09
-2.3159e-05
-3.7638e-09
3.43323e-09
-3.27664e-07
2.59287e-09
-4.55736e-05
1.14452e-09
0.0949222
1.27527e-09
0.000193695
-0.000967789
0.066587
-0.00371101
4.00438e-06
-0.000203825
-1.19595e-09
3.59804e-10
4.51547e-08
0.0016682
-0.33394
-0.000101804
0
5.71003e-09
0.00788872
-2.02587e-08
-7.67366e-09
0
0.251403
0
1.01348e-06
8.87532e-05
-0.000543143
-4.07285e-10
-8.86443e-08
-3.33888e-07
5.98714e-10
4.90978e-10
3.10298e-10
-0.000146692
-5.12484e-05
0.0743293
0.089902
0
0
3.84603e-06
-0.253643
-0.146912
0.258204
0.187556
2.51435e-09
0.00744989
0.00615514
-3.98932e-05
-1.06784e-08
-7.00938e-09
0.0492387
-1.33456e-08
0
-1.00551e-08
3.26941e-09
-2.95098e-09
0.0248166
0.307694
0.231842
0.324836
9.2932e-06
0.000448657
0
2.06991e-08
0.0589866
0.365276
-5.50394e-05
0.0534967
0.0451977
0.26972
0.509696
0.0317653
0.0397545
0.00114847
0.00274799
0.000591036
2.88847e-09
2.0159e-05
0.00129037
4.01447e-06
4.69582e-06
7.36059e-06
0.00901084
-0.000165229
0
-0.00660988
6.69233e-10
4.66961e-08
0.0418497
0.310164
0.359691
-1.34093e-08
-2.873e-05
0.00486889
3.07971e-09
0.0163482
1.87806e-09
4.78423e-09
3.73497e-05
1.36907e-08
6.00531e-07
0.00118758
0.000606656
6.89251e-07
2.91479e-05
0.000173115
0.00156997
-1.15227e-10
0.000639785
-0.00102821
-7.15426e-10
-9.28589e-05
1.70732e-08
4.52023e-05
0.000124669
-3.83256e-06
8.0331e-08
-4.19562e-06
-5.40356e-06
-5.52992e-05
4.38961e-06
4.17268e-05
0
-7.70503e-05
0
2.5793e-05
-0.000105719
-0.000253551
-2.05985e-06
-0.0131149
-0.000117231
-0.0525393
-0.13138
1.44834e-08
-7.25413e-09
0.0167534
-5.06613e-05
-0.126772
-5.41088e-09
-0.0110836
-1.65997e-07
0.000574835
-4.25599e-10
0
0.00209114
2.80932e-09
2.83683e-06
0.0146705
-1.80317e-05
1.67283e-07
0.274901
-6.0085e-07
0.106174
7.56017e-08
0.0913149
0.44912
0.386625
9.48471e-08
0.391936
1.63675e-07
0.264129
-3.55786e-08
0.309017
0.440504
0.411703
2.02083e-10
2.11451e-09
4.81759e-10
2.49249e-09
-0.00144128
-6.40214e-10
-0.000708947
0.00113174
-0.000188638
4.98083e-10
-0.000350215
0.219909
0
-1.16222e-09
0.00463933
-6.90647e-09
-1.18623e-09
0
0
0.0033099
-5.51096e-09
1.26822e-06
0.000485893
0.000249442
8.88913e-08
-1.18059e-06
0.343332
-0.000131966
0
1.25727e-06
-9.46861e-06
-2.80727e-05
2.51313e-08
-4.12023e-08
-0.0552658
0.000182164
0.0101761
2.85672e-08
0.000112677
0.000132377
0.00171473
1.05378e-05
-0.00532658
0.144036
0.19029
-1.12396e-06
0.0109352
0.127806
0.00517391
0.196809
0.00493351
3.58151e-05
0.058386
0.00135215
0.0320544
3.89062e-08
2.17472e-08
-8.56518e-09
-3.86162e-05
6.50815e-05
9.634e-08
7.03669e-05
-3.5016e-08
0.000118278
-6.18389e-08
-4.32678e-09
0.000448221
0.000629975
-0.0152438
0.004962
0.000369858
-0.374933
-0.0115264
5.32407e-06
4.18184e-06
-1.16219e-06
-2.97117e-08
0.571253
-4.48041e-05
0.589167
0.0112003
-0.0178448
0.364919
-1.54768e-08
0.0421338
5.15531e-05
2.32419e-05
-1.71392e-08
2.0603e-05
0
0.000541029
0
-0.00016788
-5.83984e-09
-0.260291
0.279218
1.01225e-06
0.167768
1.08879e-07
0.00548246
-0.00416392
9.14844e-08
-8.76543e-05
-2.15622e-06
3.10242e-08
-6.00057e-08
0.201854
1.37919e-07
-4.12254e-07
-3.83246e-07
-7.21359e-07
7.33998e-08
-1.01929e-07
7.88444e-07
4.40058e-07
0
1.73241e-08
0.340011
0
1.35861e-06
-2.20058e-08
1.89354e-09
0.00039125
0.197581
0
-7.00322e-10
-1.70642e-06
4.5354e-07
-2.45832e-06
0.000509683
0.003043
0.00339569
4.11782e-05
0
0.393065
1.6488e-07
0.205846
7.94859e-06
0.256891
0.324753
2.69323e-09
-1.04434e-10
0.529051
-0.0171431
0.0190962
1.13086e-09
-0.00367781
0.000390694
-3.29978e-07
0
0.28967
0.000654731
0.0165718
0
0.365656
0.00117156
0.406946
0.451524
-0.000430153
0
-5.27786e-05
2.52397e-06
2.48127e-10
0
0.0225984
0.0971804
0
2.13684e-05
-0.000113201
-3.8759e-07
2.48484e-08
0.0262487
0.0318108
0.36595
3.54577e-10
-2.07675e-08
0
-6.95856e-06
0.000702643
-4.93871e-07
1.41928e-07
-9.9051e-08
0
3.51601e-06
7.25314e-09
-2.73393e-05
0
0
-0.000988318
0.000161925
-0.00931111
2.84905e-06
-0.390363
0.000662295
0
0.00238254
-0.053356
-0.000261844
0
0.0553761
-8.38632e-09
0.123886
0.000445065
-1.41943e-08
0.000349041
0
1.04693e-07
0.189594
0
0.155599
3.96827e-08
-9.85681e-09
0.000245098
0
-0.00251391
0.000938378
0.269557
0
5.62073e-09
0.0226162
0.126077
0
-1.35462e-08
-8.09909e-06
0.0928684
3.68896e-06
-1.79698e-05
6.76426e-05
-0.0146345
0.02555
-0.0093357
0.00736971
0.0803653
-0.000222068
2.24023e-08
0.00385568
0.000824525
-0.288145
1.68366e-10
0
0.0363033
0
0.546495
0.0410467
2.77295e-08
0.000206263
0.0232573
0.0148347
0.003523
0.435199
0.0640484
9.10211e-08
0.159375
-0.00891722
-4.4957e-10
6.64355e-06
0.0801608
0.00552039
2.27362e-07
0.0386853
0.000775693
4.48978e-10
2.46724e-06
0.000557584
-6.14813e-10
5.6293e-08
-6.37508e-08
0
0
3.60153e-07
-0.00295676
0
-6.76777e-06
0.0707106
-0.000336101
-1.91461e-05
1.41536e-07
0.00214455
0.0600336
-1.86845e-09
0.000259103
0.0747232
0.00796768
-0.277966
1.02995e-08
0.0535059
0
1.61834e-08
-6.80014e-09
-2.38482e-08
0.1217
7.59275e-09
0.000544295
0.26703
0.002697
0.385827
-0.00461923
0.0297292
7.30156e-09
0.103353
-1.2844e-08
0.0101
2.83551e-05
-1.76343e-10
0.0243384
0.000211723
0.0649298
-0.282835
0.0334822
3.35731e-06
2.59199e-10
0
8.26771e-07
0
-6.3038e-07
0.0735628
2.52631e-09
-8.51229e-07
0.0922273
0
0.000132173
0
0.00126139
0.0179034
-1.85621e-07
-0.00348802
0
-0.0127685
0.000141012
0.418642
-4.31331e-10
-7.70426e-05
0.00577234
-0.000192472
0.251307
0.272563
3.54593e-05
0.0850147
0.00545871
0
0.551859
1.26375e-10
0
0.527842
-0.00114548
0
0
-2.40399e-06
9.26983e-05
3.31381e-10
3.51221e-06
-1.65917e-06
-0.000506323
0
-1.06954e-08
-3.15535e-08
-5.76459e-10
0.118646
1.08287e-07
0
-3.97472e-07
0.259763
1.04155e-05
0.000791409
0.0243622
0
2.47327e-08
-1.51334e-07
0
0.000260861
0.225545
-2.28553e-06
-4.09194e-09
0
3.31059e-10
-0.00141137
-0.000117862
1.1922e-08
0.00597113
3.3284e-10
0.137874
0.0127766
0
5.97453e-06
0.000716297
0
0.480891
9.68776e-05
-2.01329e-10
-0.00679095
0
0.571661
0.30967
0
0.493592
-0.000221815
1.75227e-08
0
4.01704e-07
0.305831
0.0521442
1.19154e-05
0.196396
0
0.430559
0.35956
4.70485e-08
-3.98885e-05
0
-0.00232986
0.0308554
0.333124
-1.07078e-06
0.506893
2.47254e-07
-6.8006e-07
0.000435962
-2.97352e-10
2.2603e-09
0.0021991
0.00014194
-7.00856e-08
-0.00270511
0.000345988
-0.000504118
0.503601
0.00581703
3.71137e-07
0.150919
-0.00132159
0
0.000145722
5.38452e-08
0.432057
2.94657e-07
-0.000115512
0.47397
-1.22513e-07
0.219388
-5.38578e-09
-9.83054e-05
-1.63473e-10
0.0679071
-8.37554e-08
0.0486358
1.22514e-05
-1.35975e-08
-1.62006e-07
0.0197288
0.0406872
5.50805e-05
1.24995e-10
5.92458e-09
0.257309
1.51922e-07
-2.65651e-09
0
0.318559
2.73046e-08
0
3.53738e-07
0.253959
-0.000317438
0.0257832
0.00784109
8.68301e-06
6.03658e-07
0.00529236
-0.0192369
-0.00885477
0.00150703
2.04964e-05
0.29919
2.62204e-05
-0.00135039
-0.439478
0.00248309
0.213309
1.91097e-07
0.000896236
2.2475e-05
0
-0.00265228
0
7.2988e-05
2.63869e-09
-4.8905e-10
0.22146
0.408993
0.00169192
0.483585
5.27425e-09
1.51752e-08
0.00751415
0.000957528
0.00107572
0.00138734
0.00122164
0.00494467
-3.70847e-08
0.192211
0.00398897
0.00363581
0.000206075
-1.0401e-09
0.00073455
-2.94248e-09
-6.60524e-09
0.00558898
1.2307e-08
-0.0134376
0.490961
0.000560986
0
0.000672891
0.00011495
0.000544354
0.000694681
0.000193116
0.000266683
0.268654
0.00222886
0.00164534
0.00351027
-1.89351e-05
0.00105469
0.00137435
-0.000105187
-0.000166383
0.554334
-6.00346e-10
0.52958
-3.02531e-09
0.0021428
0.0324776
0.00381736
-1.71525e-06
-0.00026286
1.53905e-07
-0.00714875
0.00936003
0.0355655
0.142085
0.34652
0.000381714
0.000207519
0
0.000244983
7.63155e-10
-7.97817e-10
0
0
0.502285
0.40885
0.0109857
0.335928
0.000143613
0.587381
0.562158
0.584237
3.97543e-07
0.00287574
0
2.8986e-10
0
-6.45246e-05
1.99192e-10
4.75174e-10
2.72723e-09
2.48838e-07
0
2.13741e-09
0.0367765
0.000561327
8.61518e-08
0.438255
3.91873e-07
0.479215
5.64338e-09
8.94879e-08
7.19357e-05
0
0.125053
0
0
0
0.171505
0.0607248
0.0821434
0
0
0.0545109
0
0
0.0789075
0
0.0502626
0
0.0511948
0
0.00183977
1.55527e-07
0.0220945
0
-0.00160934
0
0.000689254
5.59813e-09
-0.0012552
9.7505e-07
0.416846
0.000551348
0.117189
-0.000233917
0.0205486
-5.91789e-08
-4.47192e-08
1.79382e-08
0.000814073
4.47824e-08
-2.76297e-09
2.96853e-08
-1.81076e-09
0.000624824
0.00014929
6.22076e-06
-0.00168462
0.000199652
7.00833e-09
2.96597e-05
0.0035563
9.94554e-05
0.00382785
-6.64071e-06
0.0144513
0.208647
0
0.00191029
-3.84566e-10
-2.19774e-07
0.522517
0.185639
4.24489e-09
0.0170938
0.00166576
0.338996
0.00149667
-1.22884e-09
1.69325e-08
0.145421
0.0598865
0.0137882
0.0630329
-1.91512e-05
-2.34974e-05
8.07117e-07
-0.000232681
-7.11167e-08
0.000528089
0.0619168
0.00559891
-8.428e-10
-8.93901e-10
0.0769765
3.9417e-10
0.352801
4.07279e-09
0.000652875
0.000213442
3.60671e-10
-0.00146345
0.000752199
-0.00230849
3.24818e-05
-1.49947e-05
-1.80992e-05
0.404601
0
0.145624
8.91151e-09
1.31342e-09
0.000618966
9.95687e-05
0
0.108503
0.238506
0.505454
0
-2.45291e-09
-0.41075
6.52838e-07
-1.48574e-10
0.000215152
-1.2208e-09
0.000156642
-5.35877e-09
-1.5665e-09
0
0
1.55822e-10
-0.0003765
0.305547
0.509824
0.00626728
-0.000130011
-4.76148e-05
-0.000223387
-3.82539e-05
-0.0282265
-1.06167e-09
-1.30948e-06
3.51913e-07
0.000509232
6.86103e-05
3.30976e-06
0.000157806
7.85437e-10
9.56601e-06
1.88901e-09
5.84641e-05
1.9206e-09
1.97515e-05
0.188968
0.00079358
0.000445558
0.000689207
0.000796453
-9.53652e-09
1.46858e-08
-1.60388e-08
0
0.0251288
0.148334
-8.13729e-05
0.0290881
0.132711
0.129612
0.00954392
-0.000545809
0.000949617
0.00100181
0.10362
0.0248512
0.0200234
-0.0498246
7.96536e-10
-7.89819e-10
-1.2728e-10
0.00154516
0.142412
0.160484
-2.19654e-08
0.380543
0.244131
0.355
0.215331
0.00098969
1.7074e-06
0.00287946
0.00418172
0.364495
0.000148909
0.000715379
0.00242172
0.512675
0.538407
0.538422
4.48227e-10
-4.30766e-07
3.5985e-06
1.95236e-10
0
0
0.00655555
0.00413191
0.006111
0.00695304
0.000855446
0.551739
0.0876383
0.352874
0.221069
0.0960258
-0.084265
0.00462913
0.000304794
0.000286043
0.00010771
0.153715
0.561849
-0.314326
0.000139634
6.90343e-05
2.15547e-05
0
0
0
0
5.86598e-05
-0.000105857
-0.000162549
0.0230859
3.35712e-08
4.16057e-09
0.00120875
3.48137e-08
5.01189e-08
0.0118025
0.0530412
1.77662e-08
9.48643e-08
3.14217e-07
-1.9584e-06
4.39184e-06
0.564758
6.66911e-07
0.557138
-0.00164794
0.182035
-8.15907e-06
8.02925e-06
1.44061e-06
0.0169212
0.000829885
0.408588
0.20288
0.437719
0.490846
0
0
0
-0.00698839
0.00130936
0.403657
1.01093e-06
0.476314
0.494539
-2.2602e-06
-0.00260747
-4.43737e-07
-2.87048e-06
-4.18032e-09
0.00018706
0.101914
0.216712
0.00191683
0.0259628
-1.21097e-08
0.000439609
5.44974e-09
0.0276908
0.0637937
0.42738
0.211078
0.0756864
0.00737728
-5.11071e-06
-1.12581e-05
0.000987959
6.57204e-05
-0.0191491
0.515133
-0.000137632
0.0779327
-0.000636001
0.00221161
4.91308e-07
0.527651
0.22571
-1.00036e-06
0.278646
0.00182966
1.11379e-09
-4.85243e-10
9.24662e-09
0.000923866
-6.79033e-05
0.00247104
1.21821e-09
0.000292091
-0.000173969
-2.54021e-10
0.116032
0.15853
0.202284
0.0986887
-8.79499e-07
0.00585714
-5.03661e-07
0.0014796
-0.0016176
0.00153541
1.73109e-07
-0.288261
1.28397e-10
-1.5036e-10
0
3.40118e-06
1.98818e-06
0.458534
-0.00069299
0.0431033
0.00215279
-0.00141847
0.427084
0.00133669
6.40364e-06
0.143463
0
0
0
0
0.197839
-1.24711e-10
5.70646e-10
2.4697e-10
0.18642
0.0812496
0.09895
0.222132
-1.12416e-08
-3.51059e-08
0
0
0
0
0.00553992
0.141475
0.0495576
0.214634
0.131976
9.59776e-05
1.11958e-07
3.55667e-06
1.78829e-05
6.31753e-06
7.65895e-09
3.54252e-09
7.60751e-09
1.47662e-08
0.0089781
3.19773e-06
7.06104e-06
8.17e-07
-8.62163e-07
0.166232
-0.29613
-6.91118e-06
-0.176561
0
0.277416
0.376174
0.000424844
-0.000524166
-0.0014381
0.424204
0.23177
-0.000691836
0.0518969
0.0862739
0.00240415
0.108988
0
1.8312e-06
2.26839e-07
1.00624e-06
0.0118618
0.0195567
0.288066
-3.55639e-06
2.46338e-06
0.191908
0.214074
0.296538
1.66016e-06
1.47944e-06
-2.49948e-08
2.51435e-08
-8.22465e-05
0
-0.000280126
0.0510265
0
0
0
6.62047e-08
-1.10314e-08
0.000242034
3.8306e-05
9.22963e-06
1.92033e-07
0.000106681
9.75358e-05
2.55809e-05
-3.74519e-05
-7.58945e-05
0.203693
4.68186e-10
0
1.37772e-06
1.08202e-06
9.88906e-07
8.4352e-07
-0.00139724
-0.000100093
-2.58745e-09
-6.13535e-09
3.6115e-08
2.90181e-08
0.000206845
0.000340253
0.000332727
0.20285
0.00175651
2.31764e-10
-4.87012e-10
-1.3924e-10
-0.00600418
0.436922
0.119271
0.342353
0.502527
1.72275e-10
-2.59918e-08
0.010336
0.00285045
0.262723
0
0
0.206193
0.200119
0
0.462657
0.00616922
0.00484249
0.00856979
0.135182
0.19153
0.0368096
0.0870424
0.219311
1.1246e-05
-1.59281e-05
2.6444e-06
0.0242627
0.00110964
0.0935581
0.213747
0.153823
0.134212
0
-2.26042e-05
3.22755e-05
0
1.50653e-10
-0.000170049
-7.83069e-06
1.97007e-05
-7.84037e-05
0
1.77081e-10
0
3.33634e-10
-8.43598e-05
0.134518
0.225117
0.162156
0
0
0
0
1.72826e-10
0.187354
-0.00124244
-0.00209586
6.0135e-07
-0.00189888
0.0181696
0.040032
0.0275639
2.32676e-05
0.00184417
-2.38885e-07
1.46506e-08
3.81872e-07
2.46221e-06
1.019e-06
0
0.000128763
3.09129e-05
-0.000106083
-9.86933e-05
0.0199563
0
1.99397e-10
0.069553
0.42387
0.00312743
-1.4304e-09
-9.5008e-09
-4.46532e-09
2.44532e-09
0.00229996
0
0
0
0
0.209394
0
1.55509e-05
-0.0187012
-0.0321332
-0.11406
0.134838
0.086189
0.000166056
-0.0183225
-0.106599
-0.0158122
0
0
0
-0.0903608
-0.051688
-0.159346
-0.275427
0.0357144
-1.37234e-05
1.68515e-05
0
-3.87599e-06
1.56876e-05
0
0
0
-0.0528923
6.31053e-07
6.2317e-07
0.0943943
0.00261035
0.0144291
0
0
0
-3.86021e-05
0.253606
1.65651e-07
1.10885e-07
4.6371e-08
0.0776931
0.155467
0.268903
0.388903
0.000130162
0.000262833
-3.37333e-07
-2.068e-07
-5.79026e-07
0.45391
0.530723
0.501872
4.3852e-05
7.3357e-05
9.4263e-05
0.0982472
0.0154066
0.030362
-0.00359889
-0.00311834
0
0.0572288
-0.00253452
-0.00199668
0.000475985
0.272623
1.48722e-10
-0.000473043
0.00129162
-0.000627629
0.454018
2.78841e-06
0.534517
0.00629988
2.32084e-06
-4.08831e-07
8.60213e-06
0
-5.69261e-10
0
-0.335175
-0.23084
-0.000289677
0
9.70159e-07
0
0
0.000194837
0
0
0
0.000497883
0.00780746
-8.02739e-07
-5.29952e-07
1.91357e-05
3.17831e-06
-2.16662e-05
0.526119
0.00272966
-0.00087605
0.32937
0.429452
1.31496e-09
0.0466051
0.0678003
-0.0985622
0.00480686
0.00182926
-0.000330124
-0.229389
-0.328572
0.00105452
0.00665871
0
-6.13672e-10
0
0.0574342
0.073505
-0.0145424
-0.0134076
0.0311256
0.00242199
0.00237674
0.00212616
0.00139971
-0.00761869
4.86047e-09
-1.86766e-08
0.000164307
0.0477898
-0.0321447
-0.406348
3.64804e-08
3.58641e-08
1.03655e-08
-0.412558
-0.211847
-0.391191
-5.31878e-06
-0.425294
-0.378488
-0.29627
-0.00175227
-0.00272925
0.111941
-3.96081e-06
-0.00158333
0.00446625
1.73075e-06
-1.2997e-05
-7.71856e-06
0.000150722
-6.23896e-05
0.553163
-6.81451e-06
0.505439
-1.37013e-06
0.0131712
-0.00145831
1.56344e-05
0.0807621
4.58546e-05
8.04542e-07
0.00516932
0.0131734
-2.24662e-09
6.04929e-09
2.74364e-09
1.16839e-08
-1.81752e-08
0.0348343
-2.26043e-08
-5.1672e-09
0.00013705
2.79186e-09
-5.50854e-09
0.164066
2.35532e-09
2.08323e-09
1.17764e-09
5.49817e-07
-4.0004e-06
1.05481e-06
-4.40788e-06
1.84013e-06
-0.00219078
-0.0171595
0
0
9.39555e-06
0.000131782
3.74448e-05
1.51437e-05
0.000219433
0.000146032
0
0
0
0
-1.90635e-06
-1.23938e-06
0.000167552
-2.60955e-05
-0.0364939
-0.241944
-0.158439
-0.15512
0.510445
0.590643
0.000808871
0.00255166
1.83387e-05
-1.85749e-06
-6.83025e-05
-9.2811e-05
0
0
0
0
4.57703e-06
0.00230521
0.0023723
-0.0469124
0.0249101
0.0468841
-0.177485
0.105633
0.119986
-0.327031
0.0990553
0.320427
0.111889
0.122982
-0.0926126
-0.215271