# vtk DataFile Version 2.0
Unstructured Grid by M++
ASCII
DATASET UNSTRUCTURED_GRID
POINTS 4072 float
  0.656250   0.890625 0
  0.703125   0.640625 0
  0.640625   0.890625 0
  0.703125   0.625000 0
  0.640625   0.875000 0
  0.703125   0.671875 0
  0.640625   0.921875 0
  0.718750   0.656250 0
  0.656250   0.906250 0
  0.703125   0.656250 0
  0.640625   0.906250 0
  0.546875   0.718750 0
  0.531250   0.734375 0
  0.578125   0.765625 0
  0.562500   0.765625 0
  0.812500   0.796875 0
  0.718750   0.625000 0
  0.656250   0.875000 0
  0.734375   0.609375 0
  0.671875   0.859375 0
  0.718750   0.609375 0
  0.656250   0.859375 0
  0.734375   0.593750 0
  0.671875   0.843750 0
  0.578125   0.984375 0
  0.640625   0.734375 0
  0.515625   0.734375 0
  0.531250   0.718750 0
  1.000000   0.984375 0
  0.515625   0.718750 0
  0.859375   0.921875 0
  0.921875   0.671875 0
  0.843750   0.921875 0
  0.906250   0.671875 0
  0.843750   0.937500 0
  0.906250   0.687500 0
  0.546875   0.656250 0
  0.546875   0.578125 0
  0.671875   0.625000 0
  0.609375   0.875000 0
  0.546875   0.593750 0
  0.593750   0.984375 0
  0.656250   0.734375 0
  0.578125   0.609375 0
  0.515625   0.859375 0
  0.578125   0.593750 0
  0.515625   0.843750 0
  0.937500   0.640625 0
  0.875000   0.890625 0
  0.953125   0.625000 0
  0.890625   0.875000 0
  0.781250   0.578125 0
  0.718750   0.828125 0
  0.734375   0.812500 0
  0.578125   0.578125 0
  0.515625   0.828125 0
  0.562500   0.578125 0
  0.578125   0.562500 0
  0.515625   0.812500 0
  1.000000   1.000000 0
  0.859375   0.734375 0
  0.796875   0.984375 0
  0.984375   0.734375 0
  0.921875   0.984375 0
  0.968750   0.734375 0
  0.906250   0.984375 0
  0.984375   0.718750 0
  0.921875   0.968750 0
  0.859375   0.718750 0
  0.796875   0.968750 0
  0.921875   0.796875 0
  0.984375   0.546875 0
  0.562500   0.812500 0
  0.906250   0.796875 0
  0.921875   0.781250 0
  0.671875   0.687500 0
  0.609375   0.937500 0
  0.671875   0.671875 0
  0.609375   0.921875 0
  0.687500   0.671875 0
  0.625000   0.921875 0
  0.671875   0.734375 0
  0.609375   0.984375 0
  0.687500   0.734375 0
  0.625000   0.984375 0
  0.765625   0.578125 0
  0.703125   0.828125 0
  0.781250   0.562500 0
  0.718750   0.812500 0
  0.750000   0.578125 0
  0.687500   0.828125 0
  0.765625   0.562500 0
  0.703125   0.812500 0
  0.625000   0.968750 0
  0.687500   0.718750 0
  0.625000   0.953125 0
  0.687500   0.703125 0
  0.625000   0.937500 0
  0.687500   0.687500 0
  0.609375   0.968750 0
  0.671875   0.718750 0
  0.609375   0.953125 0
  0.671875   0.703125 0
  0.609375   0.890625 0
  0.671875   0.640625 0
  0.625000   0.890625 0
  0.687500   0.640625 0
  0.609375   0.906250 0
  0.671875   0.656250 0
  0.625000   0.906250 0
  0.687500   0.656250 0
  0.593750   0.765625 0
  0.937500   0.953125 0
  0.546875   0.750000 0
  0.546875   0.734375 0
  0.531250   0.750000 0
  0.937500   0.671875 0
  0.515625   0.937500 0
  0.953125   0.671875 0
  0.890625   0.921875 0
  0.875000   0.921875 0
  0.531250   0.671875 0
  0.515625   0.687500 0
  0.921875   0.703125 0
  0.859375   0.953125 0
  0.828125   0.656250 0
  0.953125   0.656250 0
  0.531250   0.921875 0
  0.890625   0.906250 0
  0.953125   0.640625 0
  0.890625   0.890625 0
  0.937500   0.656250 0
  0.875000   0.906250 0
  0.671875   0.593750 0
  0.609375   0.843750 0
  0.656250   0.593750 0
  0.593750   0.843750 0
  0.671875   0.609375 0
  0.609375   0.859375 0
  0.656250   0.609375 0
  0.593750   0.859375 0
  0.578125   0.750000 0
  0.515625   1.000000 0
  0.921875   0.578125 0
  0.859375   0.828125 0
  0.937500   0.796875 0
  0.953125   0.781250 0
  0.953125   0.734375 0
  0.890625   0.984375 0
  0.937500   0.734375 0
  0.875000   0.984375 0
  0.953125   0.796875 0
  0.968750   0.796875 0
  0.984375   0.796875 0
  1.000000   0.796875 0
  0.562500   0.796875 0
  0.578125   0.781250 0
  0.562500   0.781250 0
  0.578125   0.640625 0
  0.515625   0.890625 0
  0.562500   0.640625 0
  0.578125   0.625000 0
  0.515625   0.875000 0
  0.875000   0.703125 0
  0.812500   0.953125 0
  0.562500   0.609375 0
  0.562500   0.593750 0
  0.546875   0.609375 0
  0.562500   0.562500 0
  0.562500   0.546875 0
  0.546875   0.562500 0
  0.750000   0.609375 0
  0.687500   0.859375 0
  0.765625   0.593750 0
  0.703125   0.843750 0
  0.750000   0.593750 0
  0.687500   0.843750 0
  0.968750   0.656250 0
  0.906250   0.906250 0
  0.984375   0.640625 0
  0.921875   0.890625 0
  0.968750   0.640625 0
  0.906250   0.890625 0
  0.984375   0.625000 0
  0.921875   0.875000 0
  0.968750   0.625000 0
  0.906250   0.875000 0
  0.531250   0.984375 0
  0.796875   0.953125 0
  0.859375   0.703125 0
  0.781250   0.953125 0
  0.843750   0.703125 0
  1.000000   0.531250 0
  0.937500   0.781250 0
  0.953125   0.765625 0
  0.937500   0.765625 0
  0.953125   0.750000 0
  0.937500   0.703125 0
  0.875000   0.953125 0
  0.953125   0.687500 0
  0.890625   0.937500 0
  0.937500   0.687500 0
  0.875000   0.937500 0
  0.828125   0.640625 0
  0.828125   0.625000 0
  0.546875   0.687500 0
  0.546875   0.671875 0
  0.531250   0.687500 0
  0.953125   0.718750 0
  0.890625   0.968750 0
  0.953125   0.703125 0
  0.890625   0.953125 0
  0.984375   1.000000 0
  0.953125   0.515625 0
  0.531250   0.781250 0
  0.890625   0.765625 0
  0.890625   0.796875 0
  0.890625   0.781250 0
  0.562500   0.671875 0
  0.921875   0.656250 0
  0.578125   0.656250 0
  0.515625   0.906250 0
  0.562500   0.656250 0
  0.890625   0.750000 0
  0.828125   1.000000 0
  0.875000   0.734375 0
  0.812500   0.984375 0
  0.953125   1.000000 0
  0.750000   0.984375 0
  0.812500   0.734375 0
  0.984375   0.781250 0
  1.000000   0.781250 0
  1.000000   0.765625 0
  0.937500   0.718750 0
  0.875000   0.968750 0
  0.921875   0.718750 0
  0.859375   0.968750 0
  0.968750   0.531250 0
  0.546875   0.796875 0
  0.906250   0.781250 0
  0.984375   0.515625 0
  0.921875   0.765625 0
  0.906250   0.765625 0
  0.968750   0.781250 0
  0.984375   0.765625 0
  0.968750   0.765625 0
  0.984375   0.750000 0
  0.906250   1.000000 0
  0.968750   0.750000 0
  0.968750   0.718750 0
  0.906250   0.968750 0
  0.984375   0.703125 0
  0.921875   0.953125 0
  0.968750   0.703125 0
  0.906250   0.953125 0
  0.984375   0.687500 0
  0.562500   0.953125 0
  0.921875   0.937500 0
  0.968750   0.687500 0
  0.906250   0.937500 0
  1.000000   0.859375 0
  0.734375   0.531250 0
  0.671875   0.781250 0
  0.734375   0.546875 0
  0.671875   0.796875 0
  0.718750   0.546875 0
  0.656250   0.796875 0
  0.687500   0.921875 0
  0.750000   0.671875 0
  0.828125   0.812500 0
  0.828125   0.796875 0
  0.578125   0.812500 0
  0.578125   0.796875 0
  0.937500   0.859375 0
  0.703125   0.796875 0
  0.765625   0.546875 0
  0.718750   0.781250 0
  0.781250   0.531250 0
  0.687500   0.796875 0
  0.750000   0.546875 0
  0.703125   0.781250 0
  0.765625   0.531250 0
  0.609375   0.765625 0
  0.984375   0.828125 0
  1.000000   0.812500 0
  0.984375   0.812500 0
  1.000000   0.750000 0
  0.937500   1.000000 0
  0.953125   0.984375 0
  0.937500   0.984375 0
  0.609375   0.781250 0
  0.593750   0.781250 0
  0.593750   0.796875 0
  0.531250   0.609375 0
  0.515625   0.609375 0
  0.515625   0.562500 0
  0.875000   0.796875 0
  0.859375   0.812500 0
  0.609375   0.812500 0
  0.609375   0.796875 0
  0.593750   0.812500 0
  0.578125   0.671875 0
  0.515625   0.921875 0
  0.859375   1.000000 0
  0.921875   0.750000 0
  0.875000   1.000000 0
  0.937500   0.750000 0
  0.921875   0.734375 0
  0.859375   0.984375 0
  0.937500   0.921875 0
  0.593750   0.671875 0
  0.625000   0.609375 0
  0.562500   0.859375 0
  0.609375   0.609375 0
  0.546875   0.859375 0
  0.609375   0.671875 0
  0.546875   0.921875 0
  0.640625   0.671875 0
  0.578125   0.921875 0
  0.625000   0.671875 0
  0.562500   0.921875 0
  0.640625   0.625000 0
  0.578125   0.875000 0
  0.500000   0.906250 0
  0.078125   0.125000 0
  0.500000   0.796875 0
  0.078125   0.015625 0
  0.484375   0.843750 0
  0.468750   0.828125 0
  0.750000   0.234375 0
  0.062500   0.828125 0
  0.484375   0.562500 0
  0.296875   0.546875 0
  0.234375   0.796875 0
  0.281250   0.531250 0
  0.218750   0.781250 0
  0.296875   0.562500 0
  0.234375   0.812500 0
  0.281250   0.546875 0
  0.218750   0.796875 0
  0.265625   0.625000 0
  0.953125   0.046875 0
  0.281250   0.640625 0
  0.031250   0.546875 0
  0.500000   0.984375 0
  0.078125   0.203125 0
  0.484375   0.984375 0
  0.062500   0.203125 0
  0.718750   0.125000 0
  0.031250   0.687500 0
  0.703125   0.109375 0
  0.328125   0.625000 0
  0.343750   0.812500 0
  0.406250   0.562500 0
  0.687500   0.031250 0
  0.500000   0.859375 0
  0.468750   0.906250 0
  0.046875   0.125000 0
  0.468750   0.937500 0
  0.046875   0.156250 0
  0.062500   1.000000 0
  0.015625   0.546875 0
  0.812500   0.109375 0
  0.375000   0.812500 0
  0.437500   0.562500 0
  0.359375   0.796875 0
  0.421875   0.546875 0
  0.343750   0.781250 0
  0.406250   0.531250 0
  0.328125   0.687500 0
  0.500000   0.968750 0
  0.078125   0.187500 0
  0.031250   0.609375 0
  0.718750   0.031250 0
  0.031250   0.593750 0
  0.718750   0.015625 0
  0.703125   0.015625 0
  0.031250   0.515625 0
  0.046875   0.531250 0
  0.359375   0.687500 0
  0.375000   0.703125 0
  0.484375   0.750000 0
  0.046875   0.984375 0
  0.328125   0.656250 0
  0.343750   0.593750 0
  0.328125   0.578125 0
  0.265625   0.828125 0
  0.000000   0.515625 0
  0.500000   0.765625 0
  0.015625   0.531250 0
  0.468750   0.984375 0
  0.046875   0.203125 0
  0.375000   0.625000 0
  0.343750   0.703125 0
  0.468750   0.968750 0
  0.046875   0.187500 0
  0.359375   0.625000 0
  0.296875   0.875000 0
  0.734375   0.390625 0
  0.359375   0.718750 0
  0.015625   0.593750 0
  0.812500   0.156250 0
  0.750000   0.406250 0
  0.375000   0.734375 0
  0.453125   0.750000 0
  0.468750   0.875000 0
  0.046875   0.093750 0
  0.296875   0.812500 0
  0.484375   0.968750 0
  0.062500   0.187500 0
  0.296875   0.781250 0
  0.031250   0.968750 0
[...]
POINT_DATA 4072
SCALARS scalar_value float 1
LOOKUP_TABLE default
0.740228
-4.44737e-05
0.807865
-1.58324e-05
1.01652
0.000543155
0.342713
-0.000119362
0.508254
-1.59996e-05
0.567156
0.0736513
0.165626
0.264468
0.314833
0.00032326
-1.32119e-05
0.950361
5.51781e-07
0.998826
-1.66072e-06
1.09792
6.11678e-07
1.07487
0.00497118
0.12724
0.183189
0.0841767
0
0.0939437
6.20707e-09
8.0752e-09
-1.63499e-09
9.06368e-08
-9.41847e-09
9.42505e-08
0.000599019
-8.04415e-08
-7.42069e-06
1.07046
-1.80692e-06
0.00489388
0.132665
-2.76925e-07
1.21227
9.55941e-07
1.24252
-2.71706e-09
-1.12488e-09
1.11667e-09
0
-1.19084e-07
0.598735
0.37684
3.79822e-07
1.1917
3.08468e-07
7.36064e-08
1.07034
0
1.19679e-05
-1.51427e-07
0
0
-4.27807e-10
0
0
0
6.95642e-06
-2.62072e-07
-1.85277e-08
0
1.02254
1.08884e-08
-2.83184e-08
0.00767746
0.19605
0.00195861
0.383067
0.00123808
0.368342
0.12681
0.00488653
0.110187
0.00491232
-2.72739e-09
0.78603
-4.31061e-08
0.552678
1.44976e-07
0.945086
-3.17362e-08
0.722961
0.0239295
0.0491871
0.0768837
0.0184266
0.187781
0.00556207
0.0245758
0.0589031
0.0800665
0.0233654
0.867398
2.32265e-05
0.846491
-1.53009e-05
0.621853
0.000341739
0.602143
0.000151519
0.24767
0
0.248919
0.144379
0.287991
-7.34811e-09
0.215837
-1.57459e-09
-1.20419e-10
5.69255e-10
0.00420768
0.0161829
4.40139e-08
1.51537e-09
4.50781e-07
0
0.411547
-2.509e-10
1.01936e-09
-1.48415e-10
-6.47033e-09
0
-4.00214e-07
1.2282
-5.97796e-07
1.23079
-2.85814e-06
1.19627
-2.81356e-06
1.20235
0.146568
0
1.32709e-09
-1.28318e-06
3.41562e-10
4.46348e-10
0
0
1.10283e-08
0
1.24472e-10
0
0
0
0.807032
0.511794
0.555717
-6.50274e-05
0.90559
-3.84683e-05
-1.39538e-05
1.09738
-1.3978e-06
-2.22267e-07
-5.34498e-06
-1.97832e-07
-8.87032e-06
1.31905e-07
2.9861e-08
9.01821e-08
2.13927e-06
0.851701
4.06447e-07
0.768015
7.40507e-07
0.942888
5.59751e-10
0
0
0
4.04783e-10
0
0
0
1.08337e-10
1.83252e-10
0.00494729
9.65979e-07
1.46253e-06
1.23194e-05
1.5897e-05
0
1.76057e-09
7.42297e-10
4.5415e-09
6.90273e-10
3.45672e-09
0
-2.63491e-09
0
-3.48598e-09
3.38819e-10
-1.60186e-06
-1.03206e-06
0.0122454
0.00332558
0.014084
-1.37965e-09
0
-2.51563e-09
0
0
0
0.661347
4.46513e-07
6.91095e-07
7.39484e-07
0.00190261
-9.31928e-09
-0.000149619
0.663461
0.000202962
-9.5457e-08
0
1.52447e-06
-3.39876e-08
0
1.87077e-05
-0.000374611
0
0
0
9.37732e-09
0
3.57219e-08
6.06382e-10
0
0.842981
-4.98063e-08
0
-3.07521e-08
-1.47846e-07
0
0
-1.31044e-10
0
0
-2.69643e-10
-4.81558e-10
0
1.16268e-10
0
-3.0954e-10
0
1.53099e-10
0.0851757
0
0
0
0
-5.57637e-10
0.587635
4.36455e-09
0.787054
8.98162e-09
0.818506
0.168469
-0.000286078
-0.000163865
-0.000250495
1.00769
0.778824
0
0.599155
-1.24554e-08
0.333602
-1.85938e-10
0.713949
-5.87403e-09
0.445425
-2.75801e-09
0.259372
0
0
0
0
0
0
0
0.505632
0.494756
0.767149
-9.52408e-06
-2.45693e-06
-2.31141e-07
1.89396e-06
-4.3803e-06
1.00488
0.774058
1.00147
-2.1783e-05
0.417033
0
-1.70523e-08
0
8.48027e-09
1.00933e-08
1.18238e-10
0
4.67312e-06
2.16623e-06
1.20813
3.13067e-06
1.20997
0.000788035
0.407349
0.00322914
0.398436
0.00273445
0.403276
1.02172e-05
1.08554
0.672
0
0.909271
0
1.24341
1.17322
0
0
-2.23612e-07
-3.03613e-09
0.0852509
-7.53266e-10
0.0179422
1.55096e-08
0.113307
-2.46355e-09
0.0300626
7.03725e-06
0
-1.86782e-05
0
0.00385585
0
0.00474597
0
0
0
0
-2.30732e-05
1.03881
2.79275e-08
0
1.21189
0.674935
0
0.221279
0
0
0
0
0.985534
1.0351e-07
0.892475
2.52321e-09
0.707976
-4.22079e-09
0.00643429
0.024876
0
0
0
-1.53994e-10
0
0
0
0
0.0103751
0.0261775
0.351774
0
7.63607e-05
-2.21763e-06
1.83059e-08
0.425463
0
0.513589
0
0.00518585
0
3.07151e-05
0.0296918
0.0272973
0
7.24289e-06
0.52346
0
0.0865552
0
0
0
0.156747
0.372323
1.10901
0
0.752211
0.0262861
0
0.4777
0
1.10449
0.899306
-1.12853e-07
0
0
0.728206
0
0.423954
0
0.809543
3.26356e-05
0
-5.48538e-07
1.30443e-07
0.231539
0.762479
0.91457
0
0.632525
-8.32852e-09
1.21804
-2.35604e-07
0.573542
9.88429e-06
0
-3.24339e-08
4.94578e-09
0.351446
1.11684
0
0.545936
0.0893318
0
0.586658
-9.76742e-10
-3.30762e-06
0.0352756
-0.000339805
5.77531e-10
0.141113
-9.49758e-05
0.923884
0
1.12685e-06
0.00190221
0.220466
7.08696e-07
0
-3.31691e-07
-0.000569083
0.125672
-3.28194e-07
0
0
1.14605e-07
0.319065
-8.06651e-07
0
9.50546e-10
-0.00025747
0.241506
0
0
-5.12322e-05
-4.98829e-09
0.0280998
0.00540709
0
0.0507864
0.0150932
0
0.218421
0
-5.14746e-10
0
0
0
2.58611e-05
-1.14067e-05
0
0.00304641
-0.000250755
0
0
0
0.223177
0
0.0916053
0
0
0
0
0
1.1916
0
0.912473
0
0
1.07794
0
0
0
0.910474
-4.12527e-08
0.922552
7.10675e-10
0
0
0
3.28611e-08
0.718293
-3.35765e-10
6.87563e-09
0
-1.6351e-09
-4.92942e-09
0.000622392
1.19786e-05
6.22059e-10
0.410845
0.000120849
0.000977446
2.64859e-09
-3.84877e-09
0
6.47273e-06
0
0
-1.42926e-10
0.488806
-7.78537e-06
0.55145
0
0
-2.52957e-06
1.59083e-10
1.25994e-09
0
1.37323e-09
0
0
9.01623e-07
0
-3.8431e-07
0
-1.47882e-06
0
1.00981e-05
-1.08955e-10
0
2.50474e-05
-1.37113e-10
0
0
0
-1.54063e-10
0
0
0
4.94655e-10
-0.00093314
-0.000202629
-0.000808234
-4.7348e-09
0
0.00269618
6.06403e-09
0
0.317695
-1.98982e-06
0
2.79574e-08
0.476188
0.125062
2.53579e-09
-6.66957e-09
0
-3.20191e-08
6.06141e-08
0.00208735
-8.55815e-06
2.42724e-06
0
2.10124e-05
2.65179e-06
0.000112413
2.07099e-05
0
0.0895579
0.0206049
0
1.30283e-10
0
0
0
0
0.178768
0.0671083
0.000104575
0
-2.38745e-09
0
0
0.210533
0.0957029
0.0269351
0.00541411
0
0
0
5.4817e-10
0
0.00211414
0
-2.99706e-09
0
0
0
0.00304897
2.39021e-09
0
0
1.08081e-07
0
0
-1.7743e-08
0
0
0.166758
0.0322327
0.87467
2.81894e-10
0.353444
0.54463
0
0
1.33221e-10
1.15966e-10
0
-1.83396e-10
0
0
0
0
0
-5.97978e-10
0.315332
0.000219416
7.94731e-06
0.029846
1.32168e-07
0
-8.22013e-10
0
0
0.0310104
7.34187e-08
0
-8.50565e-08
0.0168488
0.405215
-1.12495e-06
0
0
0.00150186
0
0
0.0300445
0.100247
0.11303
0
0
0
1.05489e-10
0.0303617
1.5668e-10
0
4.85594e-07
0
0
0
0
0
0
0
0
0
1.17977
0
0
0.0521001
0
0.0726441
1.26546e-05
0
0
0
0
0
0.876491
0
1.94079e-08
0
0.039646
0
0.219253
0
0
0
-2.4861e-09
0
0
0.222692
0
0
0
0
3.25978e-09
0
0.000485352
0
2.43069e-08
0.92803
0
0
0
1.4817e-07
0
0.427651
0
0.428813
0
0.221924
0
0
-7.52292e-06
0
3.66747e-09
0
1.04131
0
0
0
1.05815
0
0
1.18711
0
0
4.01113e-06
0
0
0
0
0.00546652
0
3.0412e-08
0
0
1.0757
0
0
0
0
0
0
-7.88646e-08
0.0897885
0
0.0430706
0
-1.61584e-07
0
0
0
0
1.08808e-06
0
0.0062915
-0.000157234
0
0
-2.09922e-05
0.343304
0
-1.6332e-05
0
0.495746
0
0
0.509621
0
0
-1.31642e-08
1.51797e-10
0
0
0.0186686
0
0.00889851
0
0.0296615
0
0
0.0460818
0
1.21621
0
9.66965e-08
0
0
0.681251
0
0
0
0
1.08917
0
-1.47124e-05
0
-8.86799e-08
0
0
8.9491e-08
-5.46796e-10
0
0
0
-3.09737e-07
0
1.09192
0
0
0
-1.52643e-07
0
0
-1.25124e-07
0.421699
0
0.00434976
0
-3.71995e-07
0
0.000388777
0
-2.75813e-07
0
0
0.000276711
0
0.0494203
-0.000315411
0
0
0
0
0.61725
2.51037e-05
0
0
-4.16123e-07
0
0
-1.1558e-10
1.4076e-10
0
0.240183
0
0
1.16952e-09
0
0
0
0
0
0
0
0.201265
0
-5.38086e-05
0
0.392113
0
-8.53882e-09
0
1.23713
0
0.411881
-3.32552e-07
0
0.573859
0
1.07645e-08
0
0.861808
0
0
-1.85414e-07
-0.000330771
0
0.0250274
0
0
0
0
0
0
0
0
0
0
2.36771e-10
0
0
0
0
0.149368
0
0.00397207
0
0.0607089
0.00150942
0
0
1.21043
7.787e-10
0
1.20417
0
0
0
0
-4.24423e-05
0
0
0
0
0
-0.000290694
0
0
0
0
0
1.20576
0
0
0
1.27332e-09
0
0.87328
3.40785e-06
0
5.11762e-10
0
0.615993
6.06482e-06
0
0
0.89562
0
0
0
0
1.06208
0
0
0
7.81825e-07
0.918655
0
0
0
5.0548e-07
0
0
1.31034e-06
0
0
0
0.0709765
-2.52455e-08
0
0
-1.05361e-07
0
0
0
1.01821
0
-5.81234e-06
0
0
0
0
0
0
0.531972
0
0
0
0
0.336462
0
0
0
0
0
0
0
0
-2.61057e-08
0
0
1.19095
0
0.0575199
0
0
0
0
0
0
0
0
0
0
0
0
0
0
0
0
0
0.305226
-2.10101e-08
0
1.44551e-05
0
0
0.00508682
0
0
0
0
0
0
9.56982e-10
0.0919081
0
0
0.0467898
0
1.57996e-09
0
0
-2.25382e-08
0
0
-9.51623e-10
0
-1.12871e-09
0
-0.000214037
0
0
0
0
0
0
0
0
0
0.311051
0
0
0
0
0
0.00538693
0
0.20638
0
0
0
0
0
0.00016794
0.36209
0
0
0
0
0
-1.31803e-07
-3.83051e-08
0
0
0
0
0.91873
-1.06675e-08
0
-0.000251929
0
0
0.0309426
0
0
0.000102272
0
0
0
1.05229
0
0.0372053
0
0.0872334
0
6.73785e-06
0
0.0481349
0
0
1.18331
0.0549288
0
0
0
0
0
0
0
4.76215e-07
0
0.257647
0
0
0
0
0
0
1.78329e-06
-5.21512e-07
0
0
-1.34491e-07
0
0.0054852
0
0
-1.70247e-10
0
0
0
0.455143
0
0
0
1.2415
0.673962
0
0
0
0
0
2.02933e-10
1.19658
0
0
0
0
0
4.88479e-08
0
1.2163
0
0
1.24113
0
0
0.635293
0
8.28634e-08
0
0
0.000104029
0
0
0.672315
0.000185816
0
0.112071
0
0
0
0.0053416
-8.20986e-05
0
0
0.00926465
0
0.0511537
0
-1.55601e-09
0
0
0
0
0.0104459
0.659987
0
0.000546917
0
0
0
0
0.0707308
0
0
0.249074
0
0
0
8.2911e-08
0
0.12754
1.02869
0
0
0
0.13476
0
0
0.0279428
0
0
0
0
0
1.1136
3.54048e-08
0
0
0
2.73324e-10
0
-0.000302705
0
-4.26097e-10
0
0
0
0
9.79353e-10
0
0.533997
0.227178
0
0.227478
0
5.76085e-09
0
-1.02393e-09
0
0
0
0
0
0.955264
0
0.000360209
0
0
-6.24497e-09
0
0
0
0
0
0
0
0
0
0
0
0
0
0
0.00918993
0
0
0
0
0
0.00320429
0
0.290324
0
0
0
0
0
0
0
0
0
0
0
0
0
0
1.99813e-05
0
7.12978e-09
0
0.0278981
0
0
0
0
0
0
0.210613
0
-5.75391e-09
0
-2.51444e-05
0
0.208159
0
-2.40227e-07
0
0
0
0
0
0.476484
-1.84111e-06
0
0.667526
0.787027
0
1.40352e-06
0
0.317148
1.09391
0
0
0
0
0
0
0
0
0
-3.17992e-08
0
1.23302
0
0
0
0
0.00141246
0
0.00503133
0.250965
0
1.11548
0
5.51067e-06
0
0.152131
0
0
0
0
0
0
0
0
0.133189
0
0
1.20252
0
0
0
0
0
0
0
0
0.817139
0
0.587537
0
0
1.79918e-10
0
0
0
-8.56903e-08
0
0
0
0
-2.69151e-08
0
0
-0.000340568
0
-1.26492e-07
0
0.713097
0
0
0
0
0
0.212564
0
0.402877
0
6.17311e-10
0
0.00101638
0
-6.40099e-09
0
1.16198
0
0
0
0
2.24114e-06
0
-2.8792e-10
0
0.604096
0.073367
0
0
0
0
0
0.202642
0
0
0
0.0153693
0
0.0170242
0
0
-2.77147e-05
0
0.0861574
3.21941e-09
0
0
7.18495e-10
0
0.365457
0
0
0
0
0
0.547169
0.00816937
0
0
3.37481e-06
0
0
0
0
0
0
9.14808e-06
0
0.00462129
0
0
0
-0.000396499
0
0
0
0
0
0.0513278
0
0.00421637
0
3.86759e-06
0
0.334086
0.870537
0
0
0
0.0177293
0
0.000507
0
0
0
0
0
0
0.722673
0
5.16075e-08
0
0
0
0
0
0
0
0
0
0
0.796518
0
0.731767
0
0
0
1.05453e-10
0
-1.23322e-05
0
0.0260685
0
-0.000486449
0
0
0
9.62381e-10
0
0
0
0
0
0
0.128846
0.13403
0
0
0
-1.15885e-08
0
0.22277
0.891327
0
0
8.13461e-06
0
0
0
0.199619
0
0
2.30019e-07
0
0
0
0.00210424
0
-1.24699e-10
0
0
0.00978497
0
0
0
0.00505228
0
0
-0.000561013
0
0.0050633
0
0
0
0
0
1.29762e-05
0
0
0.102582
0
0.971931
0
0
0.0256488
0
0
0
0.0815906
0
0
0
0
0.140461
0
0
1.72509e-10
0
0.120573
0
0
0
1.42404e-06
0
0.65695
-1.11726e-09
0
0.080434
0
0.00199951
0.00186833
-1.03841e-06
0
0
0
0
0
1.09453
0
0.153427
0
0
0
-1.28628e-06
0
0
0
0.678637
0
0
0
0
0
0
0
0
0
0
0.0240327
0
0
0
0
0
0
0.425418
0
0
0.00447277
0
0
0
0
0
-9.862e-06
0
0
0
0
0
0
1.75567e-05
0
0
0
0.0484412
0
0
0
0
0
0
0
0
0.427256
0
0
0.122855
0
0
0
0.184383
0
0
0
0.895944
0
0
0.00150631
0.862984
0
3.30165e-05
0
0.10147
-7.89473e-05
0
8.54213e-10
0
0.0809766
0
0.00878558
0
0.00594208
0
0
0
0
0
0
0
0
0
0
0
0.0153618
0
0.0681951
0
0
0.00512107
0
0
0.633545
0
0
0
1.16496
0
0
0
0
0
0.589301
3.35955e-05
0
0
-0.000255532
0
0
0
0
0
0
0
2.33864e-05
0
0
0
0
0
0
0
-5.87103e-09
0
-7.54338e-05
0
0
0.000393213
0
0
0
0
-1.02926e-06
0.559951
0
-1.63672e-10
0
0.0457415
0
0
0
0
0
0.963751
-0.000216938
0
0
-7.05175e-05
-1.27066e-10
0
5.72332e-10
0.683702
-0.000157864
0
0
0
0
0.000471421
0
0
0
0.250989
0
0
0
0
0
0
0
0.220066
0
0
0
1.83917e-08
0
1.09995
0
0
0.000448858
0
2.70373e-05
0
0
0
0
0
0
0
0.393523
0
0
0.424947
0
0
0
0
0
0
0
-1.13429e-05
0
0.173295
0
0
0
0
0
0
0
0
0
0
0
0
0
0
0
-4.4124e-05
0
0.421004
0.104407
0
0
0.00621045
0
-7.78409e-05
0
0.300515
0.0320398
0
0
0
0
0
0
0
0
0
-8.10174e-10
0
0
0.0186271
0
0
0
0
0.0906127
0
0
0
5.46656e-06
0
0.879196
0.00190798
0
0
0
0
0
0
0
0
0
0.00535083
0
0
0.208011
1.82215e-05
0
0
0
0
0
0
0
0.206041
-0.000187903
0
0
0
5.4889e-10
0
2.22206e-09
0
0
0
0
0
0
0
1.84267e-05
0
0
0
1.07999
0
0
0
9.36804e-09
0
0
0
-6.7119e-06
0
0
0
0
0
0
0.886592
-5.91964e-07
3.28637e-10
0
0
4.06057e-06
0
0.891755
0
2.42851e-06
0
0
0
-1.33755e-06
0
0
0.00967177
0
0.0686164
0
0.000365348
0.0010387
0
0.19417
0
0
7.73655e-08
0
0.0112936
0.928959
0
0
0
0
0.00297449
0
0
0.0502564
-4.9395e-05
0
0
0
2.39119e-07
1.05931e-10
0
0
0
-2.04525e-07
0
0
0
1.21141
0
0
0
0.000868229
0
-6.18898e-05
0
-3.48669e-08
0
1.17154
0
0
9.69263e-05
0
0
0
0
0
0
1.23588
0
0
0.304226
0
0
0
0
0
-2.04248e-09
0
0
0
0
0
0
-0.000314738
0
0
-0.000127582
0
0
0
0.680384
0
0
0.641318
0
0
0
0
0
0
0
0
1.23899
0
0
0
0.0682325
0
0
0.00337685
0
0
0
0.64705
0
0
0
6.21609e-09
0
0
0.115741
0.110381
0
0.000337077
0
0
0
0.0772737
0.351607
0
0.000103792
0
0.19922
0
0
-1.68443e-09
0
0
0
0.0994678
0
0
0.0423116
-2.61058e-10
0
0
0
0
0
0
0.0449227
0
0
0
0
0
0
0
0
0
0
0.0123282
0
0
0.0255084
0
-0.000576597
0
0.0259292
-4.10527e-09
0
0
-0.000442989
0
0.0838059
-1.65334e-07
0
0
0.0261455
0
0
0
0
0
0
0
1.12465
0
7.65034e-08
0
1.05838
0.39081
-2.81193e-07
0
0
0
0
0
0
0.073753
0
0
0
0
0
0
0
1.0187
0
0
1.00396
0
0
0
0
0
0
-1.45904e-05
0
0.156426
0
0
0
0
0
-6.65726e-06
0
0.842102
0.325891
0
-2.07628e-07
0.00952929
0
0
0
-3.88457e-08
0
0
0.0128063
0
0
1.7053e-10
0
1.1628
0.0419153
0
0
0
-1.16945e-10
2.40497e-10
0
0
0
0
0
-1.70695e-07
0
0
0
0.000688381
0
0.0472611
0.32353
0
0.0324988
0
0.00462757
0.0161811
0
0
0.00175923
0
0
0.00098381
0
0.206811
-0.000590094
0
0
0
-7.41586e-08
0
0
-3.29994e-05
0.975282
0
0
0
-1.35702e-05
0
0
0
0
0
0
0
-9.44518e-08
0
0
0
1.18627
0
0
1.12946
0
6.31161e-10
0
1.01765
0
0
0.727745
0
0.892281
0
-0.000102231
0
0.707785
-0.000864737
0
0
-5.77591e-05
0
0
0.000810463
0
0
0
0
5.93889e-07
0
-4.24094e-10
0
0.692697
0
-1.89251e-10
-4.95748e-10
0
0
0
1.16245
0
0
0
0
0
0
0
0
0.0351284
0
0.00477094
0.0103766
0
0.0224207
8.37457e-05
0
0.0193153
0.0236466
0
0.0145703
0.0016149
0.0443855
0.000426368
0
0
0
1.79719e-05
0
2.75593e-08
0
0
-1.19056e-06
0
0.0311747
0
0
0.00488175
0
1.453e-07
0
0
0
1.11708
-1.30831e-08
0
-9.28814e-09
0
0.928504
0
0
0
1.47423e-10
0
0.260305
0
-2.97781e-07
0
0
0
1.42199e-07
0
-1.07543e-07
0
0
0
0.000159515
0.511388
-0.00064984
0
0.000418391
0.437262
0.000120318
0.655325
2.90109e-05
0.529561
-1.67031e-09
0.00674938
-1.91074e-10
1.08352e-08
0
0
-1.95443e-06
0
0
0
0
-7.02454e-07
0
-1.27069e-06
0
0.0100781
-2.94813e-09
0.0121642
0
0
0
0
0
0
0.911796
0
0
0
0
0.00718698
0.20159
0.00145676
0.392359
0.011954
0.212099
0
0
0
0
-5.56456e-09
0
0
-1.24768e-08
0
0
0
0
-5.68248e-09
0
0
2.15463e-06
1.21783
9.00003e-10
0
1.60622e-05
1.09599e-10
0
9.72589e-10
0
1.17133e-05
0
0
8.8401e-06
0
0
-2.1704e-08
0.850348
-3.28296e-09
0.664937
1.06156
3.03322e-08
0
6.96836e-10
0
0
0
0
1.39733e-09
0
0
0
0
0
1.04666e-09
0
-2.94804e-10
-9.42625e-07
0
0
0
0
-4.46063e-10
0
0
0
0
0
0
0
0.121507
0.00448805
0.0485246
0.0128713
0.157601
0.00126777
0.0642917
0.00493893
0.0204918
0.0140612
0
4.16648e-08
0
0
5.22511e-09
0
0
-1.78104e-09
0
0
0
-1.17733e-09
0
7.55364e-07
0
2.95559e-09
0
1.24592e-06
0
1.28895e-08
0.765019
1.39239e-05
0.594246
-0.000124223
0.973732
1.09291e-05
0.838168
-6.6456e-05
0.0553821
-2.7751e-09
0.182006
-1.15512e-06
0
2.57896e-08
2.2168e-10
0.468332
0.0884234
0
0
0
1.13424
3.98257e-07
1.08407
2.16898e-07
1.18681
-5.46807e-07
0
0
0
0
0
0
0
0
0
0
0
1.47557e-10
0
1.76894e-06
0
0
0
6.90144e-09
0
-5.36955e-06
3.31831e-10
0
0
-1.2408e-08
0.184312
0.002263
0.075851
0.0100461
0.0830392
0.0254074
0.025966
0.0716678
0
1.09994e-09
0
-1.8006e-06
1.16334
-9.62803e-08
1.02265
-2.8265e-06
1.15425
0
4.65704e-10
0
0
-4.98926e-05
0.882856
-2.67986e-05
1.08152
3.40152e-05
0.908874
1.16949
1.82871e-06
1.19615
8.4198e-07
1.16823
-1.18397e-06
1.19031
-6.45646e-06
1.137
3.82301e-07
0.511371
-2.58361e-10
0.720887
-3.81027e-09
0.328124
3.5673e-10
0.534656
-9.91944e-10
0
0.000164844
0
0
-1.36631e-10
0
0
0
3.54429e-08
0
0
0
0
0
0
0
0
1.80669e-08
0
-9.77219e-10
0
0
0
0
-6.16778e-09
0
0
1.02441
1.17902e-08
0
5.23706e-06
0
0
0
-4.39626e-05
1.60941e-06
0
0
0
-2.67924e-09
0
-1.96922e-08
0
0.00642216
0
0
0
0
0
0
0
9.74896e-08
0
0
7.41629e-06
0
0
-2.65871e-10
0
0.00120504
0.0188477
0.000476474
2.30384e-09
0
0.0102529
-2.80397e-06
0
0
-9.6029e-08
0
-1.62684e-06
-1.03616e-07
0
0
0
-3.52737e-05
-2.84617e-09
0
-1.89626e-05
1.1023
5.19662e-07
1.11286
0.000144607
0.922889
0
-3.9146e-09
0
0
0.00540659
0.0171081
1.19969
-7.81049e-06
3.50114e-05
-1.90027e-06
0.000927217
4.62567e-07
0
0.00122367
3.75165e-08
0
0
0.0124315
-5.76306e-09
0
0.103358
0.0275299
0.10423
0.205292
0.197484
0
1.12265e-08
0
0
0
2.29433e-09
0
0
-2.27066e-07
0
0
-2.2618e-07
0.00140399
0.000281868
0
0
0
0
-4.82346e-09
0
-5.66436e-07
1.00437
-2.68461e-06
0
0.000343937
3.18522e-08
0
1.95102e-06
0
0.0112039
0.0538564
-7.49751e-07
0
-1.66556e-05
1.04264
0.116542
2.03975e-06
0
2.6961e-06
0
0
-0.000133323
-1.42608e-10
0
-3.54599e-05
0
4.59259e-08
0
0.0456577
0.0913154
-0.000131263
2.23182e-10
0
1.28915e-09
0
2.37497e-07
0
0
0
-7.35529e-05
5.84702e-09
0
0
-1.24976e-08
0
0.996898
-5.48526e-08
1.08349
7.48668e-08
0
1.94657e-10
0
3.99191e-09
0
0
-5.15675e-10
0
-3.12572e-08
0
0
8.30832e-09
0
1.03403e-10
0
-3.65847e-08
0.00280055
0.10383
0.00261002
0.175763
0.00326563
0
0
-1.28632e-09
5.00259e-10
-9.54876e-05
-5.61163e-10
0
0
0
0
0
0
0
0
0
0
0
0
0
0
0
0
0
0
0
0
0
0
0
0
0
0
0
0
0
0
0
0
0
0
0
0
0
0
0
1.89438e-10
0
0
0
0
0
0
0
0
0
0
0
0
0
0
0
0
0
0
0
0
0
0
0
0
0
0
0
4.54511e-06
0
0
0
0
0
0
0
2.27409e-06
0
-1.34254e-06
0
2.87088e-08
0
0
0
0
0
0
0
0
0
0
0
0
0
0
0
0
0
0
0
0
0
0
0
0
0
0
0
0
0
0
0
0
0
1.61524e-10
0
0
0
0
0
0
0
0
0
0
0
0
0
0
0
0
0
0
0
8.36142e-08
0
1.5232e-08
0
-1.99528e-10
0
0
0
0
0
0
0
0
0
0
0
0
0
0
0
0
0
7.13749e-09
0
-6.0449e-09
0
0
0
0
0
0
0
1.45893e-10
0
0
0
0
0
0
0
0
0
0
0
0
0
0
0
0
0
0
0
0
0
0
-3.16137e-08
0
0
0
0
0
0
0
0
0
0
0
0
0
0
0
0
0
0
0
0
0
0
0
0
0
0
0
0
0
0
0
0
0
0
0
0
0
0
0
0
0
0
0
0
0
0
0
0
0
0
0
0
0
0
0
0
0
0
0
0
0
0
0
0
0
0
0
0
0
0
0
0
0
5.01673e-10
0
5.34973e-10
0
0
0
0
0
0
0
0
0
0
0
0
0
0
0
0
0
0
0
0
0
2.71281e-08
0
-4.38243e-09
0
-6.32005e-09
0
8.54932e-07
0
0
0
0
0
0
0
0
0
0
0
0
0
0
0
0
0
0
0
0
0
0
0
0
0
0
0
0
0
0
0
0
0
-1.07441e-10
0
0
0
0
0
0
0
0
0
0
0
0
0
0
0
0
0
0
0
0
0
0
0
0
0
0
0
0
0
0
0
0
0
0
0
0
0
0
0
0
0
0
0
0
0
0
1.97348e-10
0
0
0
0
0
0
0
0
0
0
0
0
2.03529e-06
0
0
0
0
0
0
0
0
0
0
0
0
0
0
0
0
0
0
0
0
0
-2.29879e-05
0
0
0
0
0
1.17657e-06
0
0
0
0
0
0
0
0
0
0
0
0.000307642
0
0
0
0
0
0
0
0
0
0
0
0
0
0
0
0
0
0
0
0
0
1.52435e-07
0
0
0
0
0
-1.35484e-10
0
0
0
0
0
0
0
0
0
1.52008e-10
0
0
0
0
0
0
0.00989982
0
0
0
0
-1.36161e-06
0
0
0
0
0
0
0
0
0
0
0
0
0
0
0
0
0
0
0
0
0
-3.56324e-10
0
0
0
0
0
0
0
5.48643e-07
0
1.71241e-08
0
0
0
0
0
0
0
0
0
0
0
0
0
-6.92069e-05
0
2.54074e-05
0
0
-1.5723e-08
0
7.92504e-07
0
-2.04386e-08
0
-1.90012e-07
0
-2.88201e-07
0
-1.84309e-10
0
1.62159e-10
0
0
0
0
0
0
0
0
0
0
0
0
0
0
0
0
0
0
0
0
0
0
0
0
0
0
0
0
0
0
0
0
0
0
0
0
0
0
0
0
0
0
0
0
0
0
0
0
0
-3.04923e-06
0
0
0
0
0
0
0
0
0
0
0
0
0
0
0
0
0
0
0
0
0
0
0
0
0
0
0
0
0
0
0
0
0
0
0
0
0
0
0
0
0
0
0
0
0
0
0
0
5.21338e-10
0
4.04021e-10
0
1.14152e-08
0
1.21965e-06
0
2.96092e-08
0
3.49246e-08
0
0
0
0
0
0
0
0
0
0
0
0
0
0
0
0
0
0
0
0
0
0
0
0
0
0
0
0
0
0
-5.14523e-10
0
6.3933e-09
0
0
0
0
0
0
0
0
0
0
0
0
0
0
0
0
0
0
0
0
0
0
0
-2.88715e-07
0
0
0
0
0
-9.33531e-10
0
0
0
0
0
0
0
-0.000607372
0
0
0.000650715
0
1.90274e-10
0
0
0
0
0
0
0
0
0
0
0
0
0
0
0
0
0
0
0
-1.24828e-08
0
0
0
0
0
0
5.74641e-08
0
0
0
0
0
4.76029e-08
0
0
-1.15638e-10
0
0
2.26056e-08
0
-6.27264e-07
0
0
0
0
0
0
0
0
0
0
0
0
0
0
0
7.41739e-10
0
0
0
-7.07227e-09
0
0
0
0
0
1.49113e-10
5.67934e-10
0
0
0
0
0
0
0
0
0
0
-1.25187e-10
0
0
0
0
0
0
3.32277e-08
0
-1.38963e-07
0
0
0
0
0
0
0
-1.58607e-07
0
1.36683e-06
0
-7.13372e-07
-5.03612e-07
0.116643
0.0291051
-8.36238e-09
5.93384e-08
-1.5313e-07
0.215528
4.97122e-10
0.00690638
0.012565
0.0362756
-5.61283e-09
0.45351
-1.3558e-09
2.34407e-08
3.1148e-08
-2.29725e-09
0.0532356
1.19362e-10
0.00783507
-5.65338e-10
0.0290487
0
-4.35781e-10
-8.20388e-05
-0.0005754
-0.000723772
-6.23066e-07
0.174981
8.54624e-09
0
2.43004e-09
0.013652
0.0727902
0.0322066
0.218357
0.136321
0.0714866
0
2.45785e-09
3.07645e-10
2.4901e-09
0
8.19808e-10
0.0034884
6.98523e-05
0.0111262
0.00254645
0
6.78494e-09
-1.73547e-08
0.397
6.86636e-09
2.90666e-09
-1.41887e-09
9.59973e-10
3.9015e-06
-2.15433e-08
-7.29604e-09
0
1.16797e-07
-1.31054e-09
0
-3.40145e-09
0.0115693
3.88832e-08
0.000558975
0
4.00582e-10
0
5.08621e-10
-9.45928e-10
0
0
-1.64684e-09
0
-1.55199e-09
0
5.002e-09
0.0284365
0.0353011