# vtk DataFile Version 2.0
Unstructured Grid by M++
ASCII
DATASET UNSTRUCTURED_GRID
POINTS 4072 float
  0.812500   0.625000 0
  0.953125   0.609375 0
  0.968750   0.609375 0
  0.875000   0.687500 0
  0.812500   0.937500 0
  0.859375   0.687500 0
  0.796875   0.937500 0
  0.968750   1.000000 0
  0.984375   0.984375 0
  0.968750   0.984375 0
  0.843750   0.656250 0
  0.875000   0.656250 0
  0.812500   0.906250 0
  0.859375   0.640625 0
  0.781250   0.984375 0
  0.843750   0.734375 0
  0.781250   0.968750 0
  0.843750   0.718750 0
  0.765625   0.968750 0
  0.828125   0.718750 0
  0.921875   0.593750 0
  0.859375   0.843750 0
  0.765625   1.000000 0
  0.828125   0.750000 0
  0.875000   0.796875 0
  0.890625   0.781250 0
  0.875000   0.781250 0
  0.921875   0.609375 0
  0.859375   0.859375 0
  0.984375   0.968750 0
  1.000000   0.968750 0
  1.000000   0.953125 0
  0.859375   0.734375 0
  0.796875   0.984375 0
  0.875000   0.734375 0
  0.812500   0.984375 0
  0.906250   0.953125 0
  0.968750   0.703125 0
  0.796875   0.750000 0
  0.812500   0.812500 0
  0.828125   0.796875 0
  0.781250   0.843750 0
  0.843750   0.593750 0
  0.953125   0.937500 0
  0.890625   0.625000 0
  0.828125   0.875000 0
  0.906250   0.625000 0
  0.843750   0.875000 0
  0.890625   0.609375 0
  0.828125   0.859375 0
  0.906250   0.609375 0
  0.843750   0.859375 0
  0.906250   0.593750 0
  0.843750   0.843750 0
  0.843750   0.765625 0
  0.859375   0.750000 0
  0.796875   1.000000 0
  0.937500   0.609375 0
  0.875000   0.859375 0
  0.765625   0.515625 0
  0.843750   0.640625 0
  0.843750   0.578125 0
  0.781250   0.828125 0
  0.843750   0.515625 0
  0.781250   0.765625 0
  1.000000   0.687500 0
  0.937500   0.937500 0
  0.828125   0.593750 0
  0.765625   0.843750 0
  0.828125   0.531250 0
  0.765625   0.781250 0
  0.765625   0.984375 0
  0.828125   0.734375 0
  0.812500   0.734375 0
  0.765625   0.765625 0
  0.781250   0.750000 0
  1.000000   0.656250 0
  0.937500   0.906250 0
  0.765625   0.750000 0
  0.968750   0.578125 0
  0.953125   0.593750 0
  0.953125   0.578125 0
  0.937500   0.593750 0
  0.875000   0.843750 0
  0.812500   0.796875 0
  0.875000   0.546875 0
  0.984375   0.953125 0
  0.984375   0.937500 0
  0.765625   0.562500 0
  0.937500   0.656250 0
  0.875000   0.906250 0
  0.765625   0.531250 0
  0.937500   0.625000 0
  0.875000   0.875000 0
  0.937500   0.859375 0
  1.000000   0.609375 0
  0.828125   0.687500 0
  0.765625   0.937500 0
  1.000000   0.781250 0
  0.812500   0.671875 0
  0.984375   0.765625 0
  0.828125   0.656250 0
  1.000000   0.750000 0
  0.937500   1.000000 0
  0.781250   0.515625 0
  0.953125   0.671875 0
  0.890625   0.921875 0
  0.781250   0.578125 0
  0.953125   0.984375 0
  0.984375   0.640625 0
  0.921875   0.890625 0
  0.968750   0.625000 0
  0.906250   0.875000 0
  0.812500   0.765625 0
  0.984375   0.859375 0
  1.000000   0.843750 0
  0.968750   0.859375 0
  0.843750   0.703125 0
  0.781250   0.953125 0
  0.843750   0.750000 0
  0.781250   1.000000 0
  0.843750   0.687500 0
  0.781250   0.937500 0
  0.828125   0.765625 0
  1.000000   0.859375 0
  0.828125   0.703125 0
  0.765625   0.953125 0
  0.968750   0.968750 0
  0.968750   0.953125 0
  0.796875   0.781250 0
  0.859375   0.531250 0
  0.968750   0.937500 0
  0.953125   0.968750 0
  0.781250   0.796875 0
  0.843750   0.546875 0
  0.953125   0.953125 0
  0.781250   0.812500 0
  0.953125   0.906250 0
  0.859375   0.781250 0
  0.859375   0.703125 0
  0.796875   0.953125 0
  0.859375   0.765625 0
  1.000000   0.734375 0
  0.937500   0.984375 0
  0.828125   0.578125 0
  0.765625   0.828125 0
  1.000000   0.796875 0
  0.828125   0.640625 0
  0.984375   0.734375 0
  0.921875   0.984375 0
  0.812500   0.640625 0
  0.890625   0.953125 0
  0.953125   0.703125 0
  0.796875   0.687500 0
  0.968750   0.781250 0
  0.968750   0.750000 0
  0.906250   1.000000 0
  0.953125   0.765625 0
  0.812500   0.718750 0
  0.843750   0.984375 0
  0.906250   0.734375 0
  0.921875   0.625000 0
  0.859375   0.875000 0
  0.921875   0.687500 0
  0.859375   0.937500 0
  0.968750   0.796875 0
  0.796875   0.703125 0
  0.937500   0.671875 0
  0.984375   0.796875 0
  0.812500   0.703125 0
  0.765625   0.687500 0
  0.937500   0.843750 0
  1.000000   0.593750 0
  0.937500   0.781250 0
  1.000000   0.531250 0
  0.812500   0.781250 0
  0.984375   0.875000 0
  0.843750   1.000000 0
  0.906250   0.750000 0
  0.968750   0.500000 0
  0.968750   0.718750 0
  0.906250   0.968750 0
  0.796875   0.625000 0
  0.859375   1.000000 0
  0.921875   0.750000 0
  0.968750   0.765625 0
  0.796875   0.609375 0
  0.859375   0.984375 0
  0.921875   0.734375 0
  1.000000   0.625000 0
  0.937500   0.875000 0
  1.000000   0.562500 0
  0.937500   0.812500 0
  0.875000   0.984375 0
  0.937500   0.734375 0
  0.906250   0.703125 0
  0.843750   0.953125 0
  0.906250   0.687500 0
  0.843750   0.937500 0
  0.937500   0.765625 0
  0.890625   0.718750 0
  0.828125   0.968750 0
  0.890625   0.703125 0
  0.828125   0.953125 0
  0.921875   0.781250 0
  0.906250   0.796875 0
  0.921875   0.718750 0
  0.859375   0.968750 0
  0.921875   0.703125 0
  0.859375   0.953125 0
  0.765625   0.546875 0
  0.937500   0.640625 0
  0.875000   0.890625 0
  0.937500   0.703125 0
  0.875000   0.953125 0
  0.765625   0.593750 0
  0.937500   0.687500 0
  0.875000   0.937500 0
  0.890625   0.937500 0
  0.953125   0.687500 0
  0.906250   0.718750 0
  0.843750   0.968750 0
  0.937500   0.796875 0
  0.828125   0.921875 0
  0.890625   0.671875 0
  0.984375   0.750000 0
  0.921875   1.000000 0
  0.812500   0.593750 0
  0.875000   0.968750 0
  0.937500   0.718750 0
  0.890625   1.000000 0
  0.953125   0.750000 0
  0.968750   0.671875 0
  0.906250   0.921875 0
  0.968750   0.734375 0
  0.906250   0.984375 0
  0.796875   0.578125 0
  0.984375   0.671875 0
  0.921875   0.921875 0
  0.812500   0.515625 0
  0.812500   0.578125 0
  0.765625   0.578125 0
  0.843750   0.906250 0
  0.906250   0.656250 0
  0.890625   0.750000 0
  0.828125   1.000000 0
  0.781250   0.593750 0
  0.984375   0.546875 0
  0.921875   0.796875 0
  0.921875   0.812500 0
  0.859375   0.656250 0
  0.859375   0.593750 0
  0.796875   0.843750 0
  0.859375   0.578125 0
  0.796875   0.828125 0
  0.921875   0.953125 0
  0.984375   0.703125 0
  0.984375   0.625000 0
  0.921875   0.875000 0
  0.875000   0.640625 0
  0.812500   0.890625 0
  0.875000   0.578125 0
  0.812500   0.828125 0
  0.765625   0.859375 0
  0.828125   0.609375 0
  0.937500   0.953125 0
  1.000000   0.703125 0
  0.921875   0.906250 0
  0.984375   0.656250 0
  0.921875   0.968750 0
  0.984375   0.718750 0
  1.000000   0.765625 0
  0.890625   0.984375 0
  0.953125   0.734375 0
  0.953125   0.656250 0
  0.890625   0.906250 0
  0.953125   0.718750 0
  0.890625   0.968750 0
  0.781250   0.562500 0
  0.796875   0.796875 0
  0.968750   0.640625 0
  0.906250   0.890625 0
  0.953125   0.796875 0
  0.953125   0.859375 0
  0.781250   0.703125 0
  0.984375   0.781250 0
  0.875000   1.000000 0
  0.937500   0.750000 0
  0.906250   0.937500 0
  0.968750   0.687500 0
  0.843750   0.625000 0
  0.781250   0.875000 0
  0.765625   0.796875 0
  0.937500   0.890625 0
  1.000000   0.640625 0
  0.781250   0.781250 0
  0.906250   0.906250 0
  0.968750   0.656250 0
  0.796875   0.765625 0
  1.000000   0.718750 0
  0.937500   0.968750 0
  0.828125   0.562500 0
  0.765625   0.812500 0
  0.828125   0.625000 0
  0.484375   0.750000 0
  0.421875   1.000000 0
  0.000000   0.218750 0
  0.453125   0.640625 0
  0.281250   0.546875 0
  0.312500   0.640625 0
  0.406250   0.984375 0
  0.468750   0.734375 0
  0.328125   0.656250 0
  0.390625   0.828125 0
  0.453125   0.578125 0
  0.437500   0.875000 0
  0.015625   0.093750 0
  0.312500   0.531250 0
  0.406250   0.937500 0
  0.343750   0.562500 0
  0.281250   0.812500 0
  0.453125   0.984375 0
  0.359375   0.625000 0
  0.296875   0.875000 0
  0.468750   0.796875 0
  0.046875   0.015625 0
  0.437500   0.656250 0
  0.312500   0.578125 0
  0.421875   0.921875 0
  0.000000   0.140625 0
  0.484375   0.671875 0
  0.265625   0.734375 0
  0.468750   0.984375 0
  0.046875   0.203125 0
  0.406250   0.625000 0
  0.390625   0.609375 0
  0.375000   0.625000 0
  0.265625   0.562500 0
  0.484375   0.812500 0
  0.062500   0.031250 0
  0.484375   0.984375 0
  0.062500   0.203125 0
  0.312500   0.890625 0
  0.375000   0.640625 0
  0.375000   0.671875 0
  0.390625   0.687500 0
  0.484375   0.843750 0
  0.390625   0.500000 0
  0.328125   0.687500 0
  0.328125   0.765625 0
  0.390625   0.515625 0
  0.437500   0.796875 0
  0.484375   0.531250 0
  0.468750   0.968750 0
  0.046875   0.187500 0
  0.453125   0.843750 0
  0.453125   0.812500 0
  0.281250   0.718750 0
  0.468750   0.859375 0
  0.265625   0.984375 0
  0.375000   0.765625 0
  0.296875   0.562500 0
  0.484375   0.781250 0
  0.062500   0.000000 0
  0.453125   1.000000 0
  0.031250   0.218750 0
  0.453125   0.546875 0
  0.312500   0.703125 0
  0.328125   0.718750 0
  0.296875   0.656250 0
  0.281250   0.640625 0
  0.265625   0.656250 0
  0.281250   0.671875 0
  0.484375   0.890625 0
  0.062500   0.109375 0
  0.296875   0.687500 0
  0.296875   0.625000 0
  0.265625   0.703125 0
  0.265625   0.687500 0
  0.265625   0.625000 0
  0.953125   0.046875 0
  0.484375   0.875000 0
  0.484375   0.921875 0
  0.062500   0.140625 0
  0.453125   0.921875 0
  0.031250   0.140625 0
  0.968750   0.234375 0
  0.171875   0.671875 0
  0.500000   0.796875 0
  0.078125   0.015625 0
  0.218750   0.718750 0
  0.062500   0.828125 0
  0.734375   0.250000 0
  0.906250   0.140625 0
  0.109375   0.578125 0
  0.781250   0.015625 0
  0.718750   0.187500 0
  0.031250   0.828125 0
  0.718750   0.234375 0
  0.890625   0.125000 0
  0.093750   0.562500 0
  0.734375   0.359375 0
  0.859375   0.546875 0
  0.062500   0.984375 0
  0.750000   0.406250 0
  0.718750   0.343750 0
  0.250000   0.750000 0
  0.234375   0.734375 0
  0.046875   0.578125 0
  0.734375   0.000000 0
  0.828125   0.125000 0
  0.031250   0.562500 0
[...]
POINT_DATA 4072
SCALARS scalar_value float 1
LOOKUP_TABLE default
0.0789467
0.0599243
-0.00143932
0.134965
-0.162515
-0.113789
0.286968
0
0.171097
-0.228562
0.0653931
0.046841
-0.301884
0.113486
0.13388
0.0576736
0.220003
-0.0764455
-0.132664
-0.00393521
0.183238
0.0612597
0
0.0902684
0.316458
0.376438
-0.229243
0.104804
0.038584
0.0198205
-0.201984
-0.112593
-0.00157061
-0.0956632
-0.0151472
0.0415335
0.00462383
-0.111574
0.129931
-0.062067
-0.137429
0.016756
-0.00749746
-0.105761
-0.0389138
-0.0637206
-0.0609238
0.0302469
0.000751822
0.127564
-0.00231661
-0.0205636
-0.141733
-0.0848254
0.140545
0.168555
0
-0.0533185
0.0698934
-0.0073282
-0.142348
-0.00494142
-0.159915
-0.00398221
0.153785
-0.00143474
-0.00217939
-0.0292068
-0.13206
-0.00960339
0.091399
-0.238092
-0.140683
0.153176
-0.201996
-0.148267
-0.0516568
0.0324776
0.172378
0.00529004
0.101509
0.0292194
-0.156686
0.00711743
0.118023
-0.0595075
-0.0814174
0.156422
-0.0477308
-0.0866655
-0.12181
-0.0941949
-0.132893
0.0570266
-0.0859343
0.0601849
-0.15549
-0.0277713
0.0915231
-0.164036
0.0218277
-0.154665
0.1006
0
-0.00204478
0.146527
0.2465
-0.0119706
-0.179854
0.0331959
-0.00306156
-0.0963571
-0.686031
0.154757
-0.0183733
-0.221808
-0.139152
-0.115728
-0.0134239
-0.173861
0
0.0589046
0.142513
-0.176061
-0.014729
0.0129183
0.0285272
0.0815527
-0.275154
0.126692
-0.00720732
-0.106917
-0.0901134
0.0506849
0.0133196
-0.0572918
-0.0365845
-0.0455678
0.16782
0.18281
0.0445054
-0.131073
-0.136009
-0.133222
0.00229294
0.0780591
-0.143236
0.0498336
0.0679107
0.056467
-0.162161
0.0819923
0.212233
0.0513328
-0.0303786
-0.014536
0
0.171969
-0.0940662
-0.192679
-0.131047
0.127253
-0.00340995
0.0358033
0.102511
-0.121911
-0.0523863
-0.101789
-0.103674
0.0291527
0.00456016
0.197974
0.0165476
-0.104886
0.0199374
-0.144546
-0.189807
0
-0.0623166
0.018215
-0.0733526
0.00772444
-0.105015
0
0.01672
-0.229107
0.126478
0.267724
0.23544
-0.041146
0.198402
0.0290879
-0.0252425
-0.340086
-0.139148
-0.163851
-0.0680166
0.0477596
-0.158735
-0.0463336
-0.0751241
-0.111291
0.18312
0.289191
0.176852
0.178846
-0.0295977
0.0200297
0.216754
0.167414
-0.0665583
-0.0786066
-0.0409623
-0.134159
-0.119746
-0.135779
-0.0368565
-0.201209
0.129938
0.072324
0.0820863
-0.000573962
0.0273101
-0.0524189
0.0943843
-0.0361815
0
-0.0330051
-0.128997
0.0176497
0
0.00713538
-0.0639271
-0.0354777
-0.202703
0.0895182
0.0394121
0.0781565
0.0180686
-0.0466226
0.000651119
-0.056925
0.0118648
-0.0183683
0.140758
0
0.0418961
0.00362992
-0.0499199
0.361237
-0.062302
0.09046
-0.151626
0.00879685
0.0301257
0.145214
0.079865
0.0657402
0.506107
6.9242e-05
-0.100694
-0.0551068
-0.00650549
-0.121736
-0.0122391
-0.0285667
-0.0469625
0.109567
0.0360594
-0.0635498
-0.0055827
-0.209237
0.189193
0.257003
0.116144
0.065112
0.0046351
0.219324
-0.000652453
-0.104342
-0.0316444
0.107931
0.00903373
0.114304
0.055924
-0.0212115
0
-0.00318697
0.196095
-0.111324
0.0166661
-0.38306
-0.0340225
-0.0712077
0.0897404
-0.189892
0.0935872
-0.104803
-0.119468
0.0466504
0.00393173
-0.0294704
-0.142077
-0.0511186
0.0633795
0
0.0011591
0.155969
0.110426
-0.0417322
-0.11057
0.171686
0.18453
0.507604
0.513364
-0.262859
0.0027637
0.853648
-0.106681
1.11114
0.022553
0.00268503
0.13069
0.125132
0.0497983
-0.00173335
0.497945
0.995528
0.0262582
-0.000540815
0.0856839
-0.258751
0.0975704
0.00396288
2.39191
0.0724075
0.649151
-0.0561013
0.100139
0.00238685
0.274155
-0.0188807
-0.0153389
0.456252
0.348626
-0.0744477
0.305958
1.42967
0.20529
0.0489851
2.51297
0.00809864
1.14044
-0.0462559
0.00347296
-0.112799
-0.0364464
0.0333906
0.346424
0.118252
0.242897
0.692865
0.0184727
0.00195536
0
-0.00322985
1.09974
0.0160411
0.0234204
0.0148212
-0.00294084
-0.317434
-0.0659249
0.0752582
0.000843042
0.132391
0.5216
-0.159933
-0.365216
-0.0885732
-0.00303369
0.169107
0.161407
-0.00824202
0.0524857
-0.00250891
0.0128889
-0.0285918
-0.0793916
0.000762406
0.114449
0.122047
-0.152175
0.000128635
0.0299985
0.00522979
0.334746
-0.0278674
0.428287
0.000275684
-0.0451959
-0.0460154
0.0359496
0.108357
0.0456668
0.637761
0.112184
0.0922021
0.0328564
-0.104925
0.00671782
0.0354825
0.0798458
-0.0252564
-0.0852675
0.0340344
0.00022321
0.0915366
-0.00771939
1.83332
0.2146
-0.00215531
-0.00146193
0.0093725
1.74163
0.0328594
0.0486608
0.350718
0.0109089
-0.0777282
0.669044
0.00819057
0.000424936
0.00594164
0.00677548
0.00646754
0.0522006
-0.025376
0.000329165
-0.010366
-0.167328
0.0286746
0.314225
0.0286814
0.0326062
-0.000203443
-0.0839823
0.00942731
-0.044527
0.0124751
0.0213192
-0.00716537
-0.194897
0.176833
-0.0705457
0.0384291
-0.0119797
-0.0102166
0.0697725
1.64099
-0.0160616
-0.125792
0.0191301
1.52804
0
0.204005
-0.241532
-0.0145592
0.188764
-0.0665937
0.00949798
0.321056
-0.0200047
-0.0737548
0.00374632
0.00916578
-0.0374176
-0.0363555
0.114398
-0.00955416
-0.00917845
0
-0.0248537
0.00126583
0.00295124
-0.0422641
0.0346476
0.0198855
-0.00346459
2.19011
-0.152529
-0.0768041
0.269354
-0.100685
-0.0157401
0.0121806
-0.0584431
0.0194688
0.191315
0.0315495
-0.00313025
-0.0036111
-0.0017792
0.0186517
0.0416719
0.0206741
0.000800093
0.0181294
0.00986216
-0.00436317
-0.0259346
-0.0107563
-0.0168346
-0.00491374
0.0105083
-0.05028
-0.0321919
0.014852
0.0384326
0.0246158
0.202154
1.86466
9.24605e-05
-0.0336594
-0.0162142
0.169252
0.104167
0.00209281
-0.0369803
-3.08913e-05
0.000578583
0.0465799
0.0150538
0.0063946
0.345832
-0.185257
0.00802485
0.38054
0.145715
0.00218228
0.0279611
-0.155858
1.27021
-0.0825838
0.7903
-0.00935332
-0.0498023
-0.00287727
0.0175124
0.0747511
1.13613
-0.0102428
7.99413e-05
0.0247089
-0.132142
0.0568434
-0.0106818
-0.0121457
0.0674181
-0.000167503
0.0537795
-0.00947718
0.0226037
-0.0135788
-0.190695
0.0245366
-0.00776114
0.260881
0.0399908
0.000157322
-0.103492
0.0536121
0.0112448
-0.00608322
0.112991
-0.014058
1.13279
0.00682036
0.0274976
0.769309
0.0185265
-7.08498e-05
-0.0762217
-0.0557394
0.0689666
0.000724299
0.0654487
-0.001841
-0.0356197
0.55516
0.0218047
-0.0884384
0.0135525
0.174659
0.00436382
0.01867
-0.12364
-0.000326631
0.10167
0.937865
-0.0529028
0.0410644
0.0167524
0.0142897
0.0410145
-0.0998397
-0.0093539
-0.0117274
0.308539
-0.0613159
-0.0309708
-0.121299
-0.280031
-0.0230048
0.000891608
-0.00563338
0.136038
-0.0127313
0.0247211
-0.00347893
-0.0209948
0.0198057
0.00235263
0.0267857
0.0690818
-0.0392566
-0.0273064
0.001329
0.0148134
0.00479676
0.187988
0.432294
-0.147386
0.671875
-0.0559553
-0.0720444
0.265969
0
-0.00994092
0.313941
-0.0132076
0.0329263
-0.0413306
-0.0851281
-0.0603014
-0.118324
0.0383641
0.138946
-0.110206
0.00808028
-0.0411667
-0.0684624
-0.0748777
0.188542
0.0329043
0.225826
0.0979906
-0.0330854
0.279224
-0.038175
0.0163551
-0.0765308
-0.0656006
0.0124606
-0.0188811
0
-0.0938564
-0.0836479
0.153228
-0.00814693
-0.0246097
-0.000125967
-0.279287
-0.00363146
-0.00483613
0.0220679
0.0619869
0.122422
0.00793491
-0.0291236
0.0471494
-0.118871
0.00852245
-0.101854
0.000321208
0.0420524
-0.000229753
0.00170484
0.121036
0.0445646
0.0898788
0.0285052
-0.255111
0
0
-0.130919
0.115892
0.0449998
-0.10847
0.0107944
0.00898933
-0.100965
0.0175573
-0.0126733
-0.0088942
0.175717
0.129125
0.000656482
-0.0125138
-0.00804198
0.0538051
0.0164816
-0.0460664
0.140716
0.0721367
0.164269
0.0348535
-0.0153076
-0.0165249
0.084678
-0.57084
0.00886568
-0.00556002
1.01727
0.869157
-0.220611
0.063531
-0.112655
1.66514
0.606719
1.12308
0.427219
0.542758
-0.0229302
1.07387
2.03089
1.59816
-0.226249
1.12732
0.130671
0.667985
-0.0917276
0.305648
-0.457384
0.264655
-0.307618
-0.518071
0.210389
2.06142
-0.566135
-0.514579
0.0697013
0.0197868
0.185789
0.150815
0.504907
0.222257
0.0990439
1.47964
0.634892
0.270232
0.147122
-0.0858506
0.557989
-0.185815
0.233804
-0.737564
0.445077
-0.214555
0.696741
-0.115621
0.00910295
0.364098
-0.12486
0.425952
0.164477
-0.661497
1.36262
-0.236042
0.0213978
1.61631
0.0451672
1.60431
0.0786403
-0.181217
0.000759513
1.49822
-0.100652
0.19525
1.41671
1.06246
2.01867
0.254901
2.0995
0.00103027
0.0701365
0.0975608
-0.00325134
2.06099
0.00572898
1.07395
0.00701078
0.0420097
0.157715
-0.00172765
0.877705
-0.0221936
-0.585788
0.83919
0.165945
0.168077
1.95504
2.03153
-0.0036448
-0.0226441
1.98878
-0.284271
0.131054
0.173697
-9.97966e-05
2.1585
-0.252661
0.172317
2.413
0.5404
0.0833842
1.91666
2.07696
0.49026
-0.024228
-0.592213
0.110565
0.00215034
-0.50215
0.0896565
-0.0674432
1.52628
0.196706
1.35332
0.0812548
0.0579805
0.000709771
1.40649
0.167833
1.12905
0.136544
1.05588
1.78372
0.057642
0.305586
0.0279678
1.64742
0.555078
-0.147186
-0.162085
0.257568
1.914
0.989488
0
0.015945
0.291032
-0.0276213
1.95256
0.0465327
0.0607652
0.12804
0.0867333
1.26423
-0.015016
0.177576
-0.120809
0.0923293
2.61994
1.37805
0.0621004
0.956374
2.16389
1.99631
0.900089
-0.253631
2.32564
1.98297
1.86566
2.0096
1.81611
1.27845
-0.0754819
0.155199
0.00779125
0.0217617
-0.181602
2.12424
1.4453
0.141883
1.8652
-0.0394859
0.0444446
0.0401316
0.148976
1.80974
0.4651
0.793459
0.0373057
0.054481
-0.0253566
0.478647
2.12941
-0.0946201
0.229613
2.1949
2.27676
1.80405
-0.126382
0.122623
0.056629
2.54847
2.08924
0.041754
0.000611039
-0.0371606
1.98246
0.884462
1.56957
1.12708
0.609323
-0.220473
-0.128354
0.164676
1.75764
0
-0.00930966
0.42725
0.143116
0.086386
-0.202491
0.638562
1.82755
0.317391
-0.338207
0.208979
0.0370045
0.0901728
0.657013
0.531655
1.93304
1.43465
0.00389611
0.173349
-0.0158224
-0.155639
0.14387
0.0235584
0.312771
2.15776
0.899056
0.0267219
2.13261
0.46355
0.188312
-0.0458257
0.0031134
1.81217
0.0635458
0.00224382
2.22887
0.452811
0.417533
1.81739
2.03704
1.55175
1.94801
1.75533
1.44717
0.202349
-0.0450603
1.27497
-0.110107
0.681802
0.0438775
1.98895
0.38572
0.125238
-0.398393
2.5298
1.12868
0.0342316
1.34704
1.97053
0.154581
-0.00553756
-0.122974
-0.00174843
1.31785
0.75691
-0.0169199
-0.241262
0
2.09528
0.195615
0.250209
1.37788
0.699618
-1.0938
-0.0677657
-0.0976752
0.227353
0.000681621
1.88007
-0.204317
-0.404144
-0.352544
-0.106805
2.25794
0.248193
1.78423
-0.293999
2.11761
2.04699
0.541144
0.0808155
-0.174914
0.0326259
0.0194616
0.13834
0.00276936
0.142144
0.00290336
0.00266686
0.0338777
0.0526589
0.00189951
1.53631
-0.0032394
0.145857
0.282095
0.00231487
-0.00662381
-0.0231861
0.0402932
-0.15514
0.0173482
-0.0095353
-0.011396
0.63505
0.0214831
0.0156011
0.00379831
0.0290332
-0.00837772
0.0340008
-0.000105336
0.00756878
-0.00707555
0.0113584
-0.00292021
-0.0269759
-0.00811044
0.150877
7.01989e-05
0.0336946
-0.0130324
0.0177804
0.180951
-0.0689005
0.000491708
-0.110313
-0.190144
0.136686
1.28569
0.00176424
0.0389716
-0.129119
0.000810782
0.0444592
0.000142858
0.00855118
-0.117504
-0.021388
-0.00401908
0.0737381
0.139017
-0.00255755
-0.0065652
0.00465438
-0.171472
0.160573
0.0250072
-0.0292812
1.60075
-6.85861e-05
0.165931
0.0858857
-0.109884
-0.0281095
-0.0355128
7.07251e-05
-0.163278
0.00442178
-0.296163
-0.00145119
-0.104152
0.00136864
-0.0654723
0.0016503
-0.355582
0.000336422
0.0967528
-0.0257336
0.0243145
0.00176377
0.138005
0.094002
1.9085
0.000292795
0.0517436
0.063465
0.163165
-0.15138
-0.108162
-0.0631
-0.00988864
0.129543
-0.0877779
-0.0134776
-0.154971
-0.0134489
0.0942751
-0.0711793
-0.02877
-0.0188371
0.177317
-0.0276467
0.145658
0.0160873
-0.0296385
0.0381641
0.00993107
0.019011
-0.0796195
-0.00162199
-0.215949
0.529877
-0.01075
-0.100463
0.00740921
-0.0747488
0.000828567
0.0060848
-0.00255006
-0.0537806
0.172131
0.0438166
0.051001
-0.000238984
0.0143231
-0.0991251
0.0226481
1.67873
0.000655399
-0.190864
0.0239522
1.85801
0.000315232
0.0192212
0.000637279
0.0611405
0.0280626
0.00281964
-0.0113679
0.011923
0.0571122
-0.00179291
-0.0438394
-0.0147061
0.0446816
0.0135247
0.0818913
-0.00856574
0.025599
0.299734
0.00320025
-0.0155462
0.100644
-0.00363802
-0.0124451
-0.0575665
3.92664e-05
0.0735541
0.117663
0.0297521
0.042554
-0.00269258
-0.228251
0.00188224
-0.0266777
0.129353
-0.104363
-0.078578
-0.0127762
-0.0957401
-0.0524407
0.0923028
0.0303521
-0.0234667
0.100275
-0.0283535
-0.127009
-0.0313617
-0.142255
0.00849754
-0.084769
0.0586537
-0.00244413
0.0822954
0.0122199
0.00439143
0.0361116
0.0948463
-0.00333068
-0.0278455
-0.118966
-2.7566e-05
0.0937706
0.058671
0.0253343
0.0253076
-0.0194943
0.018333
0.00595701
0.0408316
0.0239041
-0.0229801
-0.0491439
0.0172244
0.0589692
-0.0653544
-0.00215309
0.00267275
-0.0377953
-0.00849826
-0.0296515
0.134084
-0.00597717
-0.0249325
-0.0138519
-0.00366195
-0.0393828
-0.0674169
-0.0217873
0
0.111869
-0.00702828
-0.0111762
-0.0494905
-0.00153799
0.074868
0.860256
-0.0314211
-0.0107459
-0.0505587
-0.729367
0.0711348
0.206476
-0.0407243
-0.00230412
-9.82755e-05
0.0558702
-0.0357017
0.00882176
0.218858
-0.176141
0.413839
0.0212864
-0.0421053
-0.127295
0.0883652
0.017675
-0.209023
-0.00640968
-0.0389539
0.134247
-0.0318473
0.214464
-0.034992
0.114996
0.0323088
-0.00657682
-0.0500083
-0.00181423
-0.0525933
0.0115711
-0.0322117
-0.00840094
0.0145792
-0.019359
-0.0219883
0.124904
0.0107243
-0.200341
0.0519799
-0.0149341
-0.0723149
-0.0802276
-0.0101701
-0.116305
0.00348664
0.0386784
-0.0015381
0.0886349
0.000601307
-0.0242848
0.0356424
0.147297
0.0198242
-0.175347
-0.0889459
-0.019604
0.0295694
0.10672
-0.00796886
-0.0388942
0.0284445
0.03334
-0.014176
-0.193503
-0.086122
0.00355087
-0.00346104
-0.0107792
-0.0252422
-0.0409708
0.0139791
-0.0503193
-0.00183839
0.0521846
0.0524681
-0.0119755
0.0343037
-0.000661581
-0.122697
0.000729209
0.176183
0.130451
-0.00251782
-0.23974
0.0188568
0.0233653
-0.00779838
0.0294464
-0.0122473
-0.0377091
-0.107421
0.809128
0.0325865
0.576083
-0.0027983
0.0116144
0.0241598
1.19369
-0.00380498
-0.0693879
-0.0139096
0.0241093
-0.180536
0.827537
0
0.111299
0.00171249
0.000281389
0.0796932
0.0349176
-2.67359e-05
0.0193875
-0.00340615
7.21032e-05
0.0145262
0.038
0
0.0416815
0.00066704
-0.018976
-0.080171
0.00773464
0.0548806
0.00946363
-0.0304029
0.464252
-0.0131803
-0.0623657
0.00682486
0.0288824
-0.0267206
0.0486641
0.0121387
0.11041
0
-0.00306021
-0.0196232
0.175633
0.00297265
0.00356892
-0.100353
0.238101
0.0056919
-0.0219628
0.0315108
0.0157977
-0.0317841
0.0205418
5.61134e-05
-0.000238118
0.120723
0.00877633
-0.0378475
-0.0343153
-0.0200657
0.0116577
1.96296
0.00284453
-0.0495671
-0.00158932
0.00069767
-0.0196611
0.00502079
0.0995514
-0.109529
-0.0509577
0.0252546
0.00866391
0.130488
0.162303
0.00355808
0.193321
-0.0372214
0.0337745
0.0315692
0.0079159
0.755608
-0.00172123
-0.0306371
0.236464
0.0152633
0
0.0346043
0.00688495
-0.000139822
0.108726
0.0328574
-0.0757537
-0.00793271
-0.160058
-0.108009
-0.017025
0
0.188693
-0.0230484
0
-0.080815
5.6697e-05
0.0528705
-0.204919
0.0140396
0
0.0752234
1.4003
0.0482095
0.0963488
-0.14693
0.0587142
-0.00166755
0.0805211
-0.020397
0
0.0978636
0.0497774
0.10433
-0.0189161
0.0649403
-0.0603898
0.0778674
-0.0175728
0.0635553
0.0179051
0.0477225
0.0171478
0.0475323
0.0592349
0.0124364
-0.177257
-0.148894
0.000198054
0.0107389
-0.0690694
0.000768981
0.00520287
0.0784612
-0.148084
-0.0260373
0.0117874
0.189196
-0.000248536
0.168937
0.000697524
0.0182044
-0.0900578
-0.0137195
0.0344137
0.0294504
0.0500333
0.816044
0.0138056
-0.106573
0.688498
-0.00130773
-0.012499
0.00249899
0.115098
0.0691035
-0.0347615
1.46645
0.0668834
0.00893741
0.135298
0.0938776
0.031434
-0.0251011
-0.00284577
-0.0502424
1.09342
-0.00401666
0.0125764
0.574978
-0.00214319
0.066425
0.044873
0.0906092
-0.100696
0.0407162
0.813407
-0.0222188
-0.0385636
0.0107855
-0.715459
-0.0801513
1.74222
-0.000347911
-0.0553259
-0.0334757
-0.05626
-0.0713309
0.164426
-0.0272308
0.0331897
-0.00206461
-0.129301
0.082413
-0.00974929
-0.0936398
-0.00104513
-0.188113
-0.0949467
-0.0770249
0.00108744
-0.0291727
-0.202306
0.0183723
0.500179
0.0184979
0.000678837
-0.00807646
0.0542597
0.0122058
-0.000174005
0.067612
0.529226
-0.00571432
-0.0414518
-0.00999139
1.48564
0.000699582
0.123297
0.0163261
0
-0.0144461
-0.0699857
1.77163
0.00173299
0.0887196
-0.00818939
0.530252
-0.0251516
-0.0884579
-0.0222294
-0.00815232
0.178862
0.523624
-0.00153357
0.00481845
-0.0249722
0.00316539
0.10106
0.0238206
0.189811
0.000550969
0.0513129
2.26344e-05
0.0978113
-0.00151199
-0.0875541
-0.0024157
-0.00665283
0.0647162
-0.00167733
0.102034
0.0449258
-0.0699568
-0.000444429
-0.0226134
-0.0279169
-0.0485012
0.0268761
-0.124194
-0.236221
0.0131562
-0.000106646
-0.138128
-0.0133994
0.00282872
-0.0256357
-0.11401
-0.066246
0
-0.209651
0.0379951
-0.000486175
-0.0278222
0.0627444
0.344192
0.0755216
0.0754163
-0.00178993
-0.136148
0.0527267
0.0169742
-0.0592352
-0.129695
-0.112421
0.784266
0.221518
0.0209593
-0.104236
-0.0844389
0.0854572
-0.0938177
-0.0137785
0.0770201
-0.00357784
0.187022
-0.0408467
-0.00241587
0.127689
0.136282
0.00520136
0.455693
0.0705329
-0.00289343
-0.072871
0.181384
0.163013
-0.0825953
-0.0356175
-0.00345113
-0.139039
-0.00961372
0.129121
0.150697
0.0775936
0.0350863
-0.00116594
0
-0.0160574
0.168865
0.0249362
-0.00230681
-0.145094
0.00104093
0.0975496
0.00700377
-0.114686
0.0391762
-0.0102062
0.00975423
1.14228
-0.0810286
-0.0122368
-0.0024856
0.0812032
-0.109007
0.0282684
0.000684699
0.0210387
0.0147003
-0.0721977
-0.659134
-0.124983
-0.0156927
-0.059303
0.090885
0.0185607
6.42438e-05
0.00272665
0.00399931
0.0821361
0.0712159
1.39203
-0.00395718
-0.183719
0.0472693
-0.0874419
0.00433249
0.621372
-0.608639
0.388994
-0.0763588
0.182754
-0.0206268
0.0582308
0
-0.0542422
0.00100501
0.000691747
-0.0263883
0.0303786
0.28787
0.155381
0.0114853
-1.29871
0.118037
-0.041997
0.0728475
-0.034188
0.283701
1.89881
0.00800459
-0.0426082
-0.0326434
-0.0201329
-0.117993
0.739662
-0.156593
-0.181188
0.496062
0.109427
-0.748578
0.440599
-0.0109209
0.0300836
0.138856
0.118117
0.00245919
0.316034
0.182723
0.0284271
-0.0349863
0.220669
-0.046205
0
-0.00319353
0.0901285
-0.0101238
0.0137673
-0.0253176
-0.131926
0.0441634
0.00742425
-0.0115201
0.0759925
0.0147156
0.0518618
0.00468446
-0.132098
0
0.00437246
0.0112349
-0.0194625
0.011043
0.068704
-0.00137443
-0.134572
-0.0128849
-0.00224456
0.0311747
0.0107377
-0.0129158
0.0459172
0.0658724
-0.0173804
0.0280991
-0.121328
0.644435
-0.0148888
0.00410911
0.017307
-0.0237583
0.0186831
-0.0806999
-0.0198062
-0.0339061
0.000724674
-0.130873
-0.00244461
0.0125559
-0.0138073
-0.0540651
-0.0638088
-0.0544217
0.0992999
0.0271532
0.0563585
0.00854061
0.0152866
-0.0864884
0.0581959
0.0879892
0.0227243
-0.271547
-0.0790255
-0.125151
-0.0623331
0.00333531
-0.212603
0.0766785
-0.00279257
0.0888114
-0.0251585
-3.50781e-05
0.0865368
0.1701
0.0524731
-0.000263182
-0.0620397
0.0113192
0.0621139
-0.000333508
-0.0587949
0.0507868
-0.0369769
-0.000296107
-0.0620507
0.110027
-0.0176433
-0.206312
0.354436
-0.00852061
-0.108433
0.00195929
-0.00541268
0.001984
-0.00921367
-0.0022972
0.172861
-0.0122576
0.224333
-0.00722817
0.031783
0.0255889
-0.0107877
-0.0119515
0.0193341
-0.000766808
-0.0307084
0.00914842
0.000600026
-0.178062
0.000438755
0
-0.000219507
0.000537693
-0.00251529
-0.00261865
0.0221352
-0.495075
-0.00319188
-0.0791234
0.04545
0.0161148
-0.228155
0.0642894
0.00414303
-0.019369
-0.0721729
-0.0310113
-0.00121759
0.0746212
0.0585697
-0.21072
0.00476966
0.044935
-0.00782704
-0.0237789
-0.0209445
0.37265
-0.0045926
-0.0650123
0.0325311
0.0362691
0.0381019
0
0.0140736
0.0692021
-0.0326244
-0.210144
-0.000372284
-0.0309362
0.00433978
0.180507
0.189007
0.0232084
-0.0476837
0.000290707
-0.0102733
-0.000508846
-0.293702
0.974362
0.00565924
0.0555902
0.021573
-0.0608249
0.00308287
-0.19168
-0.68839
-0.00308772
0.110408
-0.0094853
0.000401249
-0.184478
-0.0566719
0.0318629
0.0159334
-0.000156424
0.0752153
-0.00808181
0.0878878
0.00333357
0.0217376
-0.0411068
-0.0254275
-0.000357282
2.05367e-06
0.125262
-0.0465976
-0.0379369
0
1.99028
0.00329008
0.0750894
-0.0354753
0.000948896
0.0900241
0.00949725
0.0160342
0.0383913
1.06371
0.000418551
-0.0271382
-0.0768127
-0.051937
-0.0135674
0.0602176
-0.0942745
-0.0303766
0.0219812
0.00183292
-0.0912681
0.000354648
-0.0444636
0.0841782
0.00225064
0.0710372
0.967395
0.00252469
0.00264027
-0.0820119
-0.186689
0.418435
-0.00140501
0.151764
0
0.000444636
-0.0781743
-0.161612
-0.0560423
0.000277435
0.00745936
0.000725474
0.143139
-0.0174347
0.00626711