# vtk DataFile Version 2.0
Unstructured Grid by M++
ASCII
DATASET UNSTRUCTURED_GRID
POINTS 289 float
  0.562500   1.000000 0
  0.562500   0.625000 0
  0.625000   1.000000 0
  0.562500   0.937500 0
  0.562500   0.562500 0
  0.625000   0.937500 0
  0.562500   0.875000 0
  0.625000   0.750000 0
  0.625000   0.625000 0
  0.562500   0.812500 0
  0.562500   0.750000 0
  0.562500   0.687500 0
  0.625000   0.875000 0
  0.625000   0.812500 0
  0.625000   0.687500 0
  0.687500   0.125000 0
  0.875000   0.062500 0
  0.625000   0.125000 0
  0.625000   0.187500 0
  0.625000   0.250000 0
  0.812500   0.187500 0
  1.000000   0.125000 0
  0.687500   0.187500 0
  0.750000   0.125000 0
  0.937500   0.062500 0
  0.937500   0.125000 0
  0.750000   0.187500 0
  0.812500   0.062500 0
  0.812500   0.125000 0
  0.875000   0.687500 0
  0.187500   0.250000 0
  0.437500   0.250000 0
  0.375000   0.187500 0
  0.812500   0.625000 0
  0.125000   0.187500 0
  0.937500   0.750000 0
  0.250000   0.312500 0
  0.500000   0.312500 0
  0.625000   0.062500 0
  0.437500   0.500000 0
  0.375000   0.125000 0
  0.437500   0.187500 0
  0.437500   0.437500 0
  0.437500   0.375000 0
  0.875000   0.875000 0
  0.187500   0.375000 0
  0.687500   0.562500 0
  0.687500   0.625000 0
  0.000000   0.125000 0
  0.937500   0.625000 0
  0.250000   0.125000 0
  0.375000   0.062500 0
  0.375000   0.000000 0
  0.812500   0.500000 0
  0.125000   0.000000 0
  0.937500   0.937500 0
  0.250000   0.437500 0
  0.687500   0.875000 0
  0.687500   0.937500 0
  0.000000   0.437500 0
  0.500000   0.500000 0
  0.500000   0.437500 0
  0.750000   0.937500 0
  0.750000   1.000000 0
  0.062500   0.500000 0
  1.000000   1.000000 0
  0.312500   0.500000 0
  0.875000   0.562500 0
  0.187500   0.062500 0
  0.437500   0.125000 0
  0.437500   0.062500 0
  0.500000   0.375000 0
  0.937500   0.812500 0
  0.937500   0.875000 0
  0.250000   0.375000 0
  0.687500   0.812500 0
  0.000000   0.375000 0
  0.750000   0.562500 0
  0.062500   0.125000 0
  1.000000   0.562500 0
  1.000000   0.625000 0
  0.312500   0.125000 0
  0.562500   0.125000 0
  0.437500   0.000000 0
  0.875000   0.437500 0
  0.875000   0.500000 0
  0.187500   0.000000 0
  0.937500   0.562500 0
  0.937500   0.500000 0
  0.250000   0.062500 0
  0.687500   0.500000 0
  0.000000   0.062500 0
  0.500000   0.062500 0
  1.000000   0.875000 0
  1.000000   0.937500 0
  0.312500   0.437500 0
  0.750000   0.875000 0
  0.062500   0.437500 0
  0.812500   0.937500 0
  0.125000   0.500000 0
  0.375000   0.500000 0
  0.625000   0.562500 0
  0.625000   0.500000 0
  0.437500   0.312500 0
  0.875000   0.812500 0
  0.875000   0.750000 0
  0.187500   0.312500 0
  0.812500   0.687500 0
  0.812500   0.750000 0
  0.125000   0.250000 0
  0.375000   0.250000 0
  1.000000   0.687500 0
  0.312500   0.187500 0
  0.750000   0.687500 0
  0.750000   0.625000 0
  0.062500   0.187500 0
  0.562500   0.250000 0
  0.562500   0.187500 0
  0.375000   1.000000 0
  0.500000   0.562500 0
  0.500000   0.250000 0
  0.750000   0.250000 0
  0.500000   0.125000 0
  0.500000   0.187500 0
  1.000000   0.187500 0
  0.625000   0.375000 0
  0.875000   0.375000 0
  1.000000   0.437500 0
  0.312500   0.000000 0
  0.562500   0.000000 0
  0.812500   0.000000 0
  0.250000   0.687500 0
  0.000000   0.687500 0
  0.500000   1.000000 0
  0.250000   1.000000 0
  0.000000   1.000000 0
  0.437500   0.687500 0
  0.437500   0.625000 0
  0.187500   0.625000 0
  0.687500   0.750000 0
  0.000000   0.312500 0
  0.000000   0.250000 0
  0.375000   0.375000 0
  0.375000   0.312500 0
  0.812500   0.812500 0
  0.125000   0.312500 0
  0.875000   0.625000 0
  0.187500   0.187500 0
  0.187500   0.125000 0
  0.937500   1.000000 0
  0.250000   0.562500 0
  0.250000   0.500000 0
  0.687500   1.000000 0
  0.000000   0.500000 0
  0.687500   0.687500 0
  0.000000   0.187500 0
  0.937500   0.687500 0
  0.250000   0.250000 0
  0.250000   0.187500 0
  0.187500   0.687500 0
  0.000000   0.750000 0
  0.250000   0.750000 0
  0.125000   0.625000 0
  0.750000   0.750000 0
  0.062500   0.250000 0
  0.875000   0.937500 0
  0.187500   0.500000 0
  0.187500   0.437500 0
  0.812500   0.562500 0
  0.125000   0.125000 0
  0.125000   0.062500 0
  0.375000   0.625000 0
  0.375000   0.687500 0
  1.000000   0.750000 0
  0.312500   0.250000 0
  0.312500   0.312500 0
  0.812500   0.312500 0
  0.562500   0.312500 0
  0.375000   0.750000 0
  0.500000   0.625000 0
  0.250000   0.625000 0
  0.312500   0.687500 0
  0.750000   0.812500 0
  0.062500   0.312500 0
  0.062500   0.375000 0
  1.000000   0.812500 0
  0.312500   0.375000 0
  0.562500   0.375000 0
  0.687500   0.437500 0
  0.000000   0.000000 0
  0.500000   0.000000 0
  0.937500   0.437500 0
  0.250000   0.000000 0
  0.375000   0.437500 0
  0.812500   0.875000 0
  0.125000   0.375000 0
  0.125000   0.437500 0
  0.625000   0.437500 0
  1.000000   0.500000 0
  0.312500   0.062500 0
  0.750000   0.500000 0
  0.062500   0.000000 0
  0.062500   0.062500 0
  0.562500   0.062500 0
  0.062500   0.750000 0
  0.312500   0.750000 0
  0.312500   0.625000 0
  0.312500   0.562500 0
  0.062500   0.562500 0
  0.187500   1.000000 0
  0.437500   0.562500 0
  0.875000   1.000000 0
  0.187500   0.562500 0
  0.500000   0.937500 0
  0.250000   0.937500 0
  0.312500   1.000000 0
  0.125000   0.750000 0
  0.125000   0.687500 0
  1.000000   0.000000 0
  0.000000   0.937500 0
  0.000000   0.875000 0
  0.875000   0.125000 0
  0.875000   0.187500 0
  0.062500   0.812500 0
  0.312500   0.812500 0
  0.000000   0.812500 0
  0.000000   0.625000 0
  0.000000   0.562500 0
  0.062500   1.000000 0
  0.062500   0.937500 0
  0.937500   0.187500 0
  0.937500   0.250000 0
  0.062500   0.687500 0
  0.062500   0.625000 0
  0.125000   1.000000 0
  1.000000   0.250000 0
  1.000000   0.312500 0
  0.062500   0.875000 0
  0.125000   0.812500 0
  0.375000   0.812500 0
  0.125000   0.875000 0
  0.375000   0.937500 0
  0.375000   0.875000 0
  0.187500   0.750000 0
  0.187500   0.812500 0
  0.437500   0.812500 0
  0.187500   0.875000 0
  0.437500   0.875000 0
  0.375000   0.562500 0
  0.812500   1.000000 0
  0.125000   0.562500 0
  0.437500   1.000000 0
  0.437500   0.937500 0
  0.187500   0.937500 0
  0.125000   0.937500 0
  0.500000   0.687500 0
  0.500000   0.750000 0
  0.500000   0.812500 0
  0.250000   0.812500 0
  0.250000   0.875000 0
  0.500000   0.875000 0
  0.437500   0.750000 0
  0.312500   0.875000 0
  0.312500   0.937500 0
  0.687500   0.250000 0
  0.687500   0.312500 0
  0.937500   0.312500 0
  0.875000   0.250000 0
  0.625000   0.000000 0
  0.875000   0.000000 0
  0.687500   0.375000 0
  0.937500   0.375000 0
  0.875000   0.312500 0
  0.625000   0.312500 0
  0.687500   0.000000 0
  0.937500   0.000000 0
  0.750000   0.312500 0
  0.750000   0.375000 0
  1.000000   0.375000 0
  0.812500   0.250000 0
  0.562500   0.437500 0
  0.562500   0.500000 0
  0.687500   0.062500 0
  0.750000   0.437500 0
  0.750000   0.000000 0
  0.750000   0.062500 0
  1.000000   0.062500 0
  0.812500   0.375000 0
  0.812500   0.437500 0
CELLS 256 1280
4 169 170 148 68
4 151 166 56 167
4 195 45 196 167
4 54 170 201 202
4 109 34 30 147
4 40 32 81 112
4 192 89 86 68
4 48 91 78 202
4 99 64 196 97
4 71 43 37 103
4 74 186 56 95
4 109 164 34 115
4 50 81 158 112
4 122 69 92 70
4 195 145 45 106
4 110 143 174 175
4 157 30 158 147
4 40 69 32 41
4 50 158 148 147
4 141 155 164 115
4 122 123 69 41
4 142 186 143 175
4 60 39 61 42
4 40 51 69 70
4 120 31 123 41
4 157 174 36 175
4 50 148 89 68
4 48 78 155 115
4 52 83 51 70
4 151 56 66 95
4 71 61 43 42
4 169 148 34 147
4 100 193 39 42
4 40 81 51 199
4 110 174 32 112
4 109 30 145 106
4 100 66 193 95
4 169 34 78 115
4 190 92 83 70
4 50 89 81 199
4 54 86 170 68
4 74 56 45 167
4 142 143 43 103
4 153 59 64 97
4 99 196 166 167
4 169 78 170 202
4 142 193 186 95
4 192 128 89 199
4 74 45 36 106
4 110 31 143 103
4 76 184 59 97
4 142 43 193 42
4 52 51 128 199
4 189 201 91 202
4 120 37 31 103
4 74 36 186 175
4 195 196 184 97
4 141 164 140 183
4 157 158 174 112
4 109 145 164 183
4 195 184 145 183
4 110 32 31 41
4 157 36 30 106
4 76 140 184 183
4 171 172 206 181
4 178 172 261 136
4 256 261 255 136
4 256 257 261 245
4 180 150 206 207
4 60 119 39 210
4 118 215 241 263
4 178 205 172 181
4 216 243 238 244
4 162 217 233 232
4 180 206 131 181
4 179 137 119 210
4 216 204 217 232
4 220 237 219 229
4 216 217 243 159
4 259 258 262 224
4 240 254 237 229
4 153 64 227 208
4 161 205 258 224
4 240 237 238 223
4 226 227 233 208
4 234 228 254 229
4 171 248 137 210
4 160 132 204 232
4 180 131 138 159
4 133 251 213 252
4 171 206 248 207
4 162 138 217 159
4 161 258 243 244
4 220 225 237 223
4 151 150 166 212
4 260 247 257 245
4 259 262 214 263
4 151 66 150 207
4 234 254 209 253
4 162 233 250 208
4 242 241 262 263
4 171 137 172 136
4 161 243 131 159
4 160 204 225 223
4 161 131 205 181
4 179 255 137 136
4 216 238 204 223
4 100 39 248 210
4 260 213 247 252
4 226 233 132 232
4 134 214 215 263
4 180 138 150 212
4 178 261 239 245
4 259 246 258 244
4 178 239 205 224
4 240 238 246 244
4 242 262 239 224
4 99 250 64 208
4 240 246 254 253
4 242 239 247 245
4 135 219 228 229
4 99 166 250 212
4 259 214 246 253
4 118 241 251 252
4 100 248 66 207
4 134 209 214 253
4 162 250 138 212
4 242 247 241 252
4 71 187 61 280
4 102 281 197 280
4 122 92 82 203
4 17 18 82 117
4 122 82 123 117
4 19 264 273 265
4 267 279 222 20
4 125 273 270 265
4 267 272 279 176
4 19 116 18 117
4 21 25 286 24
4 23 28 26 20
4 23 285 28 27
4 218 286 275 24
4 85 53 84 288
4 235 236 231 266
4 221 222 28 20
4 267 222 231 230
4 268 38 129 203
4 125 270 197 188
4 126 287 272 176
4 277 270 276 265
4 267 231 272 266
4 125 197 187 280
4 190 129 92 203
4 277 276 287 176
4 19 18 264 22
4 17 82 38 203
4 102 197 90 188
4 126 84 287 288
4 284 130 285 27
4 121 276 264 265
4 71 37 187 177
4 120 123 116 117
4 198 88 127 191
4 221 16 25 24
4 23 26 15 22
4 121 279 276 176
4 235 231 124 230
4 125 187 273 177
4 278 271 236 266
4 277 287 283 288
4 284 285 274 282
4 278 127 271 191
4 269 275 16 24
4 200 283 53 288
4 23 15 285 282
4 121 26 279 20
4 21 124 25 230
4 19 273 116 177
4 200 90 283 188
4 126 271 84 191
4 269 16 130 27
4 17 38 15 282
4 221 25 222 230
4 121 264 26 22
4 120 116 37 177
4 60 61 281 280
4 277 283 270 188
4 126 272 271 266
4 268 274 38 282
4 85 84 88 191
4 17 15 18 22
4 221 28 16 27
4 93 94 73 55
4 85 88 67 87
4 80 49 79 87
4 44 104 73 72
4 146 33 67 168
4 211 165 149 55
4 8 47 14 154
4 105 104 108 144
4 105 108 29 107
4 7 139 13 75
4 44 165 194 98
4 200 53 77 168
4 8 1 101 4
4 2 5 152 58
4 260 6 213 3
4 105 35 104 72
4 96 57 182 75
4 7 14 139 154
4 146 29 33 107
4 7 13 10 9
4 12 13 57 75
4 85 67 53 168
4 44 73 165 55
4 63 152 62 58
4 8 101 47 46
4 96 182 194 144
4 60 281 119 4
4 12 5 6 3
4 173 185 35 72
4 65 149 94 55
4 146 67 49 87
4 114 113 47 154
4 163 108 182 144
4 12 6 13 9
4 173 35 111 156
4 163 182 139 75
4 260 257 6 9
4 105 29 35 156
4 163 139 113 154
4 256 10 257 9
4 146 49 29 156
4 163 113 108 107
4 80 111 49 156
4 102 101 281 4
4 12 57 5 58
4 44 194 104 144
4 96 194 62 98
4 2 0 5 3
4 93 73 185 72
4 179 119 1 4
4 200 77 90 46
4 114 33 113 107
4 7 10 14 11
4 96 62 57 58
4 133 213 0 3
4 102 90 101 46
4 256 255 10 11
4 63 62 249 98
4 114 47 77 46
4 179 1 255 11
4 211 249 165 98
4 114 77 33 168
4 198 79 88 87
4 8 14 1 11
CELL_TYPES 256
8
8
8
8
8
8
8
8
8
8
8
8
8
8
8
8
8
8
8
8
8
8
8
8
8
8
8
8
8
8
8
8
8
8
8
8
8
8
8
8
8
8
8
8
8
8
8
8
8
8
8
8
8
8
8
8
8
8
8
8
8
8
8
8
8
8
8
8
8
8
8
8
8
8
8
8
8
8
8
8
8
8
8
8
8
8
8
8
8
8
8
8
8
8
8
8
8
8
8
8
8
8
8
8
8
8
8
8
8
8
8
8
8
8
8
8
8
8
8
8
8
8
8
8
8
8
8
8
8
8
8
8
8
8
8
8
8
8
8
8
8
8
8
8
8
8
8
8
8
8
8
8
8
8
8
8
8
8
8
8
8
8
8
8
8
8
8
8
8
8
8
8
8
8
8
8
8
8
8
8
8
8
8
8
8
8
8
8
8
8
8
8
8
8
8
8
8
8
8
8
8
8
8
8
8
8
8
8
8
8
8
8
8
8
8
8
8
8
8
8
8
8
8
8
8
8
8
8
8
8
8
8
8
8
8
8
8
8
8
8
8
8
8
8
8
8
8
8
8
8
8
8
8
8
8
8
CELL_DATA 256
VECTORS vector_value float
-0.318919 -1.87188 0
0.227563 -1.50371 0
0.362941 -1.14014 0
0.136168 -2.31614 0
-0.929031 -1.56199 0
-0.282723 -0.377572 0
-0.0482003 -0.833259 0
-0.0463447 -0.98692 0
0.175204 -0.623162 0
-0.154071 -0.244441 0
-0.408823 -1.12346 0
-0.640259 -1.45269 0
-0.325139 -0.254132 0
-0.128998 -0.72772 0
-0.256198 -0.999289 0
-0.29151 -0.306775 0
-1.10977 -2.22876 0
-0.181856 -0.303844 0
-0.958303 -1.39444 0
-0.069897 -0.432038 0
-0.330607 -0.658418 0
-0.21905 -0.418166 0
0.0696341 -0.477641 0
-0.105323 -0.373762 0
-0.390275 -0.346545 0
-0.595519 -1.42806 0
-0.165325 -0.83948 0
-0.19205 -0.832423 0
-0.0654822 -0.34485 0
-0.275972 -0.871473 0
0.00323497 -0.306528 0
-1.44392 -2.39895 0
-0.113961 -0.428051 0
-0.0771395 -0.256662 0
-0.289593 -0.328651 0
-0.657249 -1.52454 0
-0.401149 -0.858737 0
-0.546353 -1.6969 0
-0.0688965 -0.774277 0
-0.115063 -0.262527 0
0.216238 -2.46192 0
0.203567 -2.42555 0
-0.139016 -0.195232 0
0.0551687 -0.278371 0
0.511073 -1.60793 0
-0.349923 -2.85135 0
-0.367812 -0.648661 0
-0.0501688 -0.25205 0
-0.360482 -2.80154 0
-0.355134 -0.295979 0
0.0164881 -0.169306 0
-0.127178 -0.21185 0
-0.0730187 -0.302053 0
-0.003205 -1.01834 0
-0.473451 -0.297712 0
-0.212485 -1.24513 0
0.0993633 -0.491021 0
-0.0840516 -0.363379 0
-0.518528 -0.614216 0
-0.246565 -0.611003 0
-0.100256 -0.463631 0
-0.369957 -0.409834 0
-0.588939 -2.08231 0
-0.0267403 -0.198173 0
-0.247299 -0.303778 0
-0.0700331 -0.820548 0
-0.0563856 -1.50316 0
0.321995 -1.63081 0
-0.219968 -0.598261 0
0.156101 -0.766693 0
0.795973 -1.25851 0
-0.0911501 -0.228245 0
0.189195 -0.679969 0
-0.0803107 -0.846269 0
-0.142547 -0.34142 0
-0.309713 -1.36161 0
-0.0684059 -0.907503 0
-0.0204713 -1.82837 0
0.166605 -1.32765 0
-0.0811091 -0.348284 0
-0.105344 -0.632999 0
0.195398 -0.514603 0
-0.0853073 -0.257602 0
0.180637 -0.793221 0
0.13514 -0.963232 0
-0.534401 -0.581003 0
-0.614757 -1.29512 0
-0.0379126 -0.710873 0
-0.127937 -0.893934 0
-0.0310681 -1.21834 0
-0.355826 -0.292819 0
-0.0553292 -0.927674 0
-0.133422 -0.590956 0
0.324924 -1.66783 0
0.0140786 -0.650175 0
0.777347 -1.43279 0
0.203748 -0.634007 0
-0.204243 -0.716154 0
-0.0884765 -0.753475 0
0.104778 -0.704565 0
0.699071 -1.07934 0
-0.341607 -0.933636 0
0.0301039 -0.505379 0
0.224615 -0.814453 0
-0.0888675 -0.370821 0
-0.511556 -1.70551 0
0.760121 -1.36704 0
-0.40725 -1.16083 0
0.699473 -1.26713 0
-0.0967044 -0.925378 0
0.855945 -0.900439 0
-0.142499 -0.512332 0
0.201588 -1.03636 0
-0.108853 -0.554922 0
-0.0241533 -0.311202 0
0.0195523 -0.274241 0
0.131698 -0.552371 0
0.561834 -1.08199 0
-0.0208497 -0.296783 0
0.536325 -1.40058 0
-0.384059 -1.56709 0
0.411054 -1.53976 0
0.0672865 -0.380107 0
0.346961 -1.32054 0
-0.451225 -0.547144 0
0.480066 -0.637583 0
-0.136084 -1.44521 0
0.939577 -1.72056 0
0.118644 -0.379894 0
0.166466 -0.338379 0
-0.114233 -0.996621 0
-0.170277 -0.591694 0
-0.349574 -1.0428 0
-0.34258 -1.21804 0
-0.118001 -1.33008 0
-0.922824 -2.24198 0
-0.202934 -1.42555 0
-0.764777 -1.05284 0
0.00462214 -0.280492 0
0.247103 -3.99913 0
0.23181 -3.70494 0
0.0463656 -0.374102 0
-0.856672 -1.70151 0
0.0134617 -0.30388 0
0.113078 -1.22099 0
-0.0159713 -0.304064 0
0.0141283 -0.392571 0
-0.421919 -1.27277 0
-0.208237 -1.15127 0
-0.505583 -1.93824 0
-0.106624 -0.380813 0
0.091846 -0.516706 0
-0.0358011 -0.868527 0
-0.367478 -1.85698 0
-0.168954 -0.487205 0
-0.0284037 -0.428125 0
-0.0532521 -0.541791 0
-0.412889 -1.75648 0
0.0852342 -2.82055 0
0.596934 -2.06276 0
-0.197407 -0.331201 0
-0.758914 -0.880733 0
-0.11841 -0.308904 0
0.0725745 -0.40316 0
0.115964 -0.455922 0
0.326643 -2.02434 0
0.00227158 -0.289416 0
-0.645623 -0.917856 0
0.0275734 -0.244003 0
-0.604459 -1.71953 0
-0.119194 -0.600459 0
-0.00991957 -0.209815 0
0.118303 -0.504742 0
-1.19175 -2.74676 0
-0.0218572 -0.361613 0
0.351289 -3.25568 0
-0.00617295 -0.300962 0
-0.618508 -1.0812 0
-0.833636 -1.90678 0
-0.0923356 -0.815034 0
0.279783 -1.97153 0
0.000905866 -0.116774 0
0.0167054 -0.280765 0
0.416603 -1.02526 0
-0.597159 -0.593655 0
0.228682 -0.469887 0
-1.14829 -2.81325 0
-0.0508212 -0.752855 0
0.00655357 -0.164631 0
-0.664205 -1.33691 0
-0.0151366 -0.191064 0
0.329691 -1.53797 0
-0.0186535 -0.370434 0
-0.649575 -1.74573 0
-0.235951 -1.41466 0
0.520639 -1.62393 0
-0.351432 -1.51972 0
-0.395978 -1.25285 0
0.136725 -0.499022 0
0.520081 -2.10587 0
0.179996 -1.56087 0
0.133105 -0.413566 0
0.259316 -2.38245 0
-0.418151 -3.04103 0
0.146921 -0.205741 0
0.891741 -0.816682 0
0.58362 -0.757189 0
0.764617 -1.61508 0
0.899493 -0.709549 0
0.0130131 -0.22896 0
-0.270623 -2.04205 0
0.124504 -0.407389 0
0.728519 -0.409288 0
-0.61476 -1.38362 0
0.0463348 -1.38238 0
1.17429 -0.948848 0
0.212482 -0.472514 0
0.710449 -2.33535 0
0.189471 -0.369124 0
0.572882 -0.441737 0
0.357553 -1.07231 0
-0.280688 -0.569283 0
-0.299271 -1.63206 0
0.0702647 -0.844395 0
-0.0595408 -2.11721 0
0.656765 -0.357347 0
0.0585971 -1.66394 0
-0.00496336 -0.687095 0
0.749415 -1.00381 0
0.0168007 -1.64092 0
-0.0164365 -1.07195 0
0.166748 -0.893087 0
-0.135003 -1.57628 0
0.284677 -1.76966 0
-0.0646015 -1.62738 0
0.0978616 -0.218919 0
0.567605 -0.475066 0
0.49419 -1.98875 0
0.591646 -1.59301 0
0.356029 -0.460763 0
0.212618 -0.547737 0
0.115559 -0.320896 0
0.0440602 -1.11774 0
-0.134606 -1.52061 0
-0.00446911 -0.455701 0
0.623672 -0.758429 0
-0.0762551 -0.771959 0
0.0888036 -0.358892 0
-0.104609 -1.23381 0
0.971173 -1.25593 0
0.159964 -1.01397 0
-0.161309 -0.763702 0
0.270652 -1.6867 0
-0.249184 -2.2473 0
-0.293887 -0.787595 0
0.139304 -0.248954 0
