# vtk DataFile Version 2.0
Unstructured Grid by M++
ASCII
DATASET UNSTRUCTURED_GRID
POINTS 81 float
  1.000000   0.625000 0
  0.750000   0.375000 0
  1.000000   0.000000 0
  0.875000   0.875000 0
  0.750000   0.125000 0
  1.000000   1.000000 0
  0.875000   0.250000 0
  0.625000   0.875000 0
  1.000000   0.750000 0
  0.875000   0.000000 0
  1.000000   0.250000 0
  0.625000   0.375000 0
  0.875000   0.500000 0
  0.625000   0.625000 0
  1.000000   0.500000 0
  0.750000   0.500000 0
  0.750000   1.000000 0
  1.000000   0.125000 0
  0.625000   0.250000 0
  0.750000   0.750000 0
  0.625000   0.000000 0
  0.125000   0.375000 0
  0.000000   0.500000 0
  0.125000   0.625000 0
  0.625000   1.000000 0
  1.000000   0.875000 0
  0.875000   0.125000 0
  0.500000   0.250000 0
  0.625000   0.500000 0
  0.250000   0.625000 0
  0.000000   0.625000 0
  0.375000   0.500000 0
  0.375000   0.000000 0
  0.000000   0.125000 0
  0.125000   0.875000 0
  0.875000   1.000000 0
  0.750000   0.250000 0
  0.375000   0.375000 0
  0.250000   0.375000 0
  0.625000   0.750000 0
  0.125000   0.125000 0
  0.500000   0.000000 0
  0.250000   0.875000 0
  0.125000   0.500000 0
  0.500000   0.375000 0
  0.125000   0.000000 0
  0.250000   0.750000 0
  0.250000   0.500000 0
  0.000000   0.875000 0
  0.875000   0.625000 0
  0.500000   0.750000 0
  0.750000   0.625000 0
  0.250000   0.000000 0
  0.375000   0.750000 0
  0.750000   0.875000 0
  0.625000   0.125000 0
  0.250000   0.250000 0
  0.375000   1.000000 0
  0.375000   0.250000 0
  0.000000   0.375000 0
  0.500000   1.000000 0
  0.875000   0.750000 0
  0.750000   0.000000 0
  0.375000   0.125000 0
  0.500000   0.875000 0
  0.000000   0.000000 0
  0.125000   0.750000 0
  0.500000   0.625000 0
  0.125000   0.250000 0
  0.500000   0.125000 0
  0.250000   1.000000 0
  0.250000   0.125000 0
  0.000000   1.000000 0
  0.375000   0.875000 0
  0.000000   0.750000 0
  0.375000   0.625000 0
  0.000000   0.250000 0
  0.125000   1.000000 0
  1.000000   0.375000 0
  0.500000   0.500000 0
  0.875000   0.375000 0
CELLS 64 320
4 56 71 58 63
4 27 58 69 63
4 41 69 32 63
4 76 33 68 40
4 27 44 58 37
4 79 31 44 37
4 56 38 68 21
4 56 58 38 37
4 52 32 71 63
4 47 38 31 37
4 76 68 59 21
4 22 59 43 21
4 65 45 33 40
4 47 43 38 21
4 52 71 45 40
4 56 68 71 40
4 74 30 66 23
4 46 66 29 23
4 22 43 30 23
4 72 48 77 34
4 46 53 42 73
4 50 64 53 73
4 70 42 57 73
4 74 66 48 34
4 46 42 66 34
4 47 29 43 23
4 70 77 42 34
4 60 57 64 73
4 79 67 31 75
4 47 31 29 75
4 50 53 67 75
4 46 29 53 75
4 10 78 6 80
4 36 6 1 80
4 15 1 12 80
4 36 4 6 26
4 14 12 78 80
4 2 17 9 26
4 36 18 4 55
4 15 28 1 11
4 62 4 20 55
4 10 6 17 26
4 27 18 44 11
4 62 9 4 26
4 27 69 18 55
4 36 1 18 11
4 41 20 69 55
4 79 44 28 11
4 16 24 54 7
4 19 54 39 7
4 50 39 64 7
4 8 25 61 3
4 60 64 24 7
4 79 28 67 13
4 19 51 61 49
4 8 61 0 49
4 15 51 28 13
4 19 39 51 13
4 50 67 39 13
4 19 61 54 3
4 14 0 12 49
4 5 35 25 3
4 15 12 51 49
4 16 54 35 3
CELL_TYPES 64
8
8
8
8
8
8
8
8
8
8
8
8
8
8
8
8
8
8
8
8
8
8
8
8
8
8
8
8
8
8
8
8
8
8
8
8
8
8
8
8
8
8
8
8
8
8
8
8
8
8
8
8
8
8
8
8
8
8
8
8
8
8
8
8
CELL_DATA 64
VECTORS vector_value float
-0.411676 -1.29176 0
-1.14706 -0.759982 0
-0.195505 -0.693772 0
0.0258052 -0.317871 0
0.142468 -0.249455 0
0.0659434 -0.934465 0
0.0852565 -0.224636 0
0.0331915 -0.989434 0
-0.486315 -1.52144 0
-0.164766 -0.761411 0
0.0413149 -0.381078 0
0.10637 -0.485853 0
0.0169239 -0.278432 0
0.244513 -0.248973 0
-0.341281 -0.874165 0
0.0390657 -0.213883 0
0.06503 -0.91625 0
0.139308 -0.107806 0
0.0948434 -0.792109 0
-0.203133 -1.47055 0
0.369953 -0.0886891 0
-0.0117285 -0.350519 0
0.938031 -0.46426 0
0.216451 -1.22281 0
0.495885 -0.115652 0
0.0868841 -0.0733296 0
-0.0220257 -0.179677 0
1.87471 -0.602398 0
-0.169122 -1.34324 0
0.0955897 -0.207652 0
-0.113222 -1.1356 0
0.131621 -0.14502 0
-0.124977 -0.705271 0
-0.592725 -0.84781 0
-0.685153 -1.84655 0
-0.284011 -0.938456 0
-0.20109 -0.822344 0
-0.000737954 -0.249816 0
-0.694816 -3.1584 0
0.401505 -2.36316 0
-0.0250772 -2.39285 0
-0.126917 -0.300874 0
0.1139 -1.12126 0
-0.00215802 -0.904274 0
-1.27075 -1.01877 0
-0.84166 -3.48106 0
-0.0962679 -1.08525 0
0.128879 -0.537251 0
0.534268 -1.36854 0
0.350498 -0.737751 0
-0.134118 -2.67394 0
0.239524 -2.0464 0
1.38704 -2.23122 0
0.518517 -1.71979 0
-0.0128053 -0.601522 0
-0.0674354 -2.60232 0
0.0447991 -0.850357 0
0.0768164 -0.504844 0
-0.0736821 -1.98664 0
1.00808 -0.764242 0
-0.517859 -1.93521 0
0.424278 -1.60421 0
-0.504039 -1.07831 0
0.274403 -0.0791353 0
