# vtk DataFile Version 2.0
Unstructured Grid by M++
ASCII
DATASET UNSTRUCTURED_GRID
POINTS 81 float
  1.000000   0.625000 0
  0.750000   0.375000 0
  1.000000   0.000000 0
  0.875000   0.875000 0
  0.750000   0.125000 0
  1.000000   1.000000 0
  0.875000   0.250000 0
  0.625000   0.875000 0
  1.000000   0.750000 0
  0.875000   0.000000 0
  1.000000   0.250000 0
  0.625000   0.375000 0
  0.875000   0.500000 0
  0.625000   0.625000 0
  1.000000   0.500000 0
  0.750000   0.500000 0
  0.750000   1.000000 0
  1.000000   0.125000 0
  0.625000   0.250000 0
  0.750000   0.750000 0
  0.625000   0.000000 0
  0.125000   0.375000 0
  0.000000   0.500000 0
  0.125000   0.625000 0
  0.625000   1.000000 0
  1.000000   0.875000 0
  0.875000   0.125000 0
  0.500000   0.250000 0
  0.625000   0.500000 0
  0.250000   0.625000 0
  0.000000   0.625000 0
  0.375000   0.500000 0
  0.375000   0.000000 0
  0.000000   0.125000 0
  0.125000   0.875000 0
  0.875000   1.000000 0
  0.750000   0.250000 0
  0.375000   0.375000 0
  0.250000   0.375000 0
  0.625000   0.750000 0
  0.125000   0.125000 0
  0.500000   0.000000 0
  0.250000   0.875000 0
  0.125000   0.500000 0
  0.500000   0.375000 0
  0.125000   0.000000 0
  0.250000   0.750000 0
  0.250000   0.500000 0
  0.000000   0.875000 0
  0.875000   0.625000 0
  0.500000   0.750000 0
  0.750000   0.625000 0
  0.250000   0.000000 0
  0.375000   0.750000 0
  0.750000   0.875000 0
  0.625000   0.125000 0
  0.250000   0.250000 0
  0.375000   1.000000 0
  0.375000   0.250000 0
  0.000000   0.375000 0
  0.500000   1.000000 0
  0.875000   0.750000 0
  0.750000   0.000000 0
  0.375000   0.125000 0
  0.500000   0.875000 0
  0.000000   0.000000 0
  0.125000   0.750000 0
  0.500000   0.625000 0
  0.125000   0.250000 0
  0.500000   0.125000 0
  0.250000   1.000000 0
  0.250000   0.125000 0
  0.000000   1.000000 0
  0.375000   0.875000 0
  0.000000   0.750000 0
  0.375000   0.625000 0
  0.000000   0.250000 0
  0.125000   1.000000 0
  1.000000   0.375000 0
  0.500000   0.500000 0
  0.875000   0.375000 0
CELLS 64 320
4 56 71 58 63
4 27 58 69 63
4 41 69 32 63
4 76 33 68 40
4 27 44 58 37
4 79 31 44 37
4 56 38 68 21
4 56 58 38 37
4 52 32 71 63
4 47 38 31 37
4 76 68 59 21
4 22 59 43 21
4 65 45 33 40
4 47 43 38 21
4 52 71 45 40
4 56 68 71 40
4 74 30 66 23
4 46 66 29 23
4 22 43 30 23
4 72 48 77 34
4 46 53 42 73
4 50 64 53 73
4 70 42 57 73
4 74 66 48 34
4 46 42 66 34
4 47 29 43 23
4 70 77 42 34
4 60 57 64 73
4 79 67 31 75
4 47 31 29 75
4 50 53 67 75
4 46 29 53 75
4 10 78 6 80
4 36 6 1 80
4 15 1 12 80
4 36 4 6 26
4 14 12 78 80
4 2 17 9 26
4 36 18 4 55
4 15 28 1 11
4 62 4 20 55
4 10 6 17 26
4 27 18 44 11
4 62 9 4 26
4 27 69 18 55
4 36 1 18 11
4 41 20 69 55
4 79 44 28 11
4 16 24 54 7
4 19 54 39 7
4 50 39 64 7
4 8 25 61 3
4 60 64 24 7
4 79 28 67 13
4 19 51 61 49
4 8 61 0 49
4 15 51 28 13
4 19 39 51 13
4 50 67 39 13
4 19 61 54 3
4 14 0 12 49
4 5 35 25 3
4 15 12 51 49
4 16 54 35 3
CELL_TYPES 64
8
8
8
8
8
8
8
8
8
8
8
8
8
8
8
8
8
8
8
8
8
8
8
8
8
8
8
8
8
8
8
8
8
8
8
8
8
8
8
8
8
8
8
8
8
8
8
8
8
8
8
8
8
8
8
8
8
8
8
8
8
8
8
8
CELL_DATA 64
VECTORS vector_value float
-0.100353 -1.84372 0
0.376016 -0.918453 0
0.117416 -0.873355 0
-0.458476 -1.06957 0
-0.117412 -0.93737 0
-0.704742 -0.847322 0
-0.200257 -0.828955 0
-0.225809 -2.67415 0
-0.00216261 -1.09937 0
0.162652 -2.13477 0
-0.0411462 -0.487974 0
0.0777673 -0.597609 0
-0.199747 -1.83891 0
0.367752 -0.974152 0
-0.108717 -0.552721 0
-0.883005 -0.9217 0
-0.0451049 -0.524246 0
-0.128103 -1.88055 0
-0.0403511 -0.707788 0
0.187492 -0.717567 0
-0.0304828 -0.0930259 0
-0.0599006 -0.385901 0
0.137268 -0.223154 0
0.0668194 -0.510886 0
0.0651237 -1.81798 0
0.233072 -1.71383 0
0.020742 -1.55001 0
0.853378 -0.810789 0
-0.543724 -0.397163 0
-0.141958 -0.687118 0
-0.329138 -0.309619 0
-0.240829 -0.298036 0
-0.03256 -0.346288 0
-0.249893 -0.571454 0
-0.679098 -1.10354 0
-0.0786354 -0.212922 0
-0.200487 -0.533141 0
-0.0203693 -0.24556 0
-0.215025 -1.39898 0
-0.775052 -1.55053 0
0.228235 -1.94766 0
-0.016328 -0.296477 0
-0.576632 -0.753468 0
-0.0449089 -0.192641 0
0.218916 -1.33819 0
-0.394368 -1.40035 0
0.249757 -1.24978 0
-0.27253 -0.258933 0
0.711051 -0.507496 0
0.43682 -0.914363 0
0.191528 -1.09718 0
0.0957963 -1.88478 0
0.932213 -1.50599 0
-0.93456 -0.917025 0
-0.754312 -1.232 0
-0.360393 -1.74542 0
-0.641998 -1.55113 0
-0.39959 -1.13175 0
-0.256309 -0.878376 0
0.188512 -1.29589 0
-0.190993 -1.0569 0
0.344719 -1.48113 0
-0.360815 -0.969043 0
0.813547 -1.20386 0
