# vtk DataFile Version 2.0
Unstructured Grid by M++
ASCII
DATASET UNSTRUCTURED_GRID
POINTS 81 float
  1.000000   0.625000 0
  0.750000   0.375000 0
  1.000000   0.000000 0
  0.875000   0.875000 0
  0.750000   0.125000 0
  1.000000   1.000000 0
  0.875000   0.250000 0
  0.625000   0.875000 0
  1.000000   0.750000 0
  0.875000   0.000000 0
  1.000000   0.250000 0
  0.625000   0.375000 0
  0.875000   0.500000 0
  0.625000   0.625000 0
  1.000000   0.500000 0
  0.750000   0.500000 0
  0.750000   1.000000 0
  1.000000   0.125000 0
  0.625000   0.250000 0
  0.750000   0.750000 0
  0.625000   0.000000 0
  0.125000   0.375000 0
  0.000000   0.500000 0
  0.125000   0.625000 0
  0.625000   1.000000 0
  1.000000   0.875000 0
  0.875000   0.125000 0
  0.500000   0.250000 0
  0.625000   0.500000 0
  0.250000   0.625000 0
  0.000000   0.625000 0
  0.375000   0.500000 0
  0.375000   0.000000 0
  0.000000   0.125000 0
  0.125000   0.875000 0
  0.875000   1.000000 0
  0.750000   0.250000 0
  0.375000   0.375000 0
  0.250000   0.375000 0
  0.625000   0.750000 0
  0.125000   0.125000 0
  0.500000   0.000000 0
  0.250000   0.875000 0
  0.125000   0.500000 0
  0.500000   0.375000 0
  0.125000   0.000000 0
  0.250000   0.750000 0
  0.250000   0.500000 0
  0.000000   0.875000 0
  0.875000   0.625000 0
  0.500000   0.750000 0
  0.750000   0.625000 0
  0.250000   0.000000 0
  0.375000   0.750000 0
  0.750000   0.875000 0
  0.625000   0.125000 0
  0.250000   0.250000 0
  0.375000   1.000000 0
  0.375000   0.250000 0
  0.000000   0.375000 0
  0.500000   1.000000 0
  0.875000   0.750000 0
  0.750000   0.000000 0
  0.375000   0.125000 0
  0.500000   0.875000 0
  0.000000   0.000000 0
  0.125000   0.750000 0
  0.500000   0.625000 0
  0.125000   0.250000 0
  0.500000   0.125000 0
  0.250000   1.000000 0
  0.250000   0.125000 0
  0.000000   1.000000 0
  0.375000   0.875000 0
  0.000000   0.750000 0
  0.375000   0.625000 0
  0.000000   0.250000 0
  0.125000   1.000000 0
  1.000000   0.375000 0
  0.500000   0.500000 0
  0.875000   0.375000 0
CELLS 64 320
4 56 71 58 63
4 27 58 69 63
4 41 69 32 63
4 76 33 68 40
4 27 44 58 37
4 79 31 44 37
4 56 38 68 21
4 56 58 38 37
4 52 32 71 63
4 47 38 31 37
4 76 68 59 21
4 22 59 43 21
4 65 45 33 40
4 47 43 38 21
4 52 71 45 40
4 56 68 71 40
4 74 30 66 23
4 46 66 29 23
4 22 43 30 23
4 72 48 77 34
4 46 53 42 73
4 50 64 53 73
4 70 42 57 73
4 74 66 48 34
4 46 42 66 34
4 47 29 43 23
4 70 77 42 34
4 60 57 64 73
4 79 67 31 75
4 47 31 29 75
4 50 53 67 75
4 46 29 53 75
4 10 78 6 80
4 36 6 1 80
4 15 1 12 80
4 36 4 6 26
4 14 12 78 80
4 2 17 9 26
4 36 18 4 55
4 15 28 1 11
4 62 4 20 55
4 10 6 17 26
4 27 18 44 11
4 62 9 4 26
4 27 69 18 55
4 36 1 18 11
4 41 20 69 55
4 79 44 28 11
4 16 24 54 7
4 19 54 39 7
4 50 39 64 7
4 8 25 61 3
4 60 64 24 7
4 79 28 67 13
4 19 51 61 49
4 8 61 0 49
4 15 51 28 13
4 19 39 51 13
4 50 67 39 13
4 19 61 54 3
4 14 0 12 49
4 5 35 25 3
4 15 12 51 49
4 16 54 35 3
CELL_TYPES 64
8
8
8
8
8
8
8
8
8
8
8
8
8
8
8
8
8
8
8
8
8
8
8
8
8
8
8
8
8
8
8
8
8
8
8
8
8
8
8
8
8
8
8
8
8
8
8
8
8
8
8
8
8
8
8
8
8
8
8
8
8
8
8
8
CELL_DATA 64
VECTORS vector_value float
4.05978 -4.02322 0
1.27093 -0.804635 0
0.309424 -3.20721 0
0.0629306 -0.038065 0
0.000743429 -0.000555915 0
-3.92956e-06 -4.01445e-06 0
1.37541 -5.50092 0
0.152271 -0.865826 0
0.0127182 -3.46874 0
0.644372 -1.07916 0
0.265399 -0.23476 0
0.121325 -0.79234 0
1.5133e-07 -5.66822e-06 0
4.13275 -4.73055 0
4.8655e-07 -0.000179508 0
1.09331 -1.74292 0
-0.115468 -1.70513 0
-2.93758 -4.89639 0
0.499132 -6.60157 0
-0.349784 -1.5829 0
-0.494323 0.350655 0
-1.96138 0.445493 0
-3.60717 0.341701 0
0.0164634 -2.90594 0
-0.345177 -3.5067 0
4.99713e-08 -2.54777e-07 0
-1.81882 -2.73131 0
-1.13999 -0.603162 0
-0.000322266 -0.000510753 0
-1.2633e-08 -1.12933e-07 0
-0.000359133 3.44175e-07 0
-7.65338e-05 -2.03809e-05 0
0.218087 -0.432749 0
-0.00615478 -0.25063 0
-0.69403 -1.37194 0
0.0930119 -1.1256 0
-0.00147444 -0.0115837 0
-2.31406e-05 -0.000355952 0
1.75576e-06 -5.67523e-07 0
0.0045818 -0.01441 0
9.77257e-06 -3.04218e-05 0
-0.224267 -0.155491 0
-7.94605e-07 2.46687e-07 0
-0.0122392 -1.28073 0
-0.0934077 -0.110067 0
-0.109013 -0.714561 0
-0.00244813 -0.0427471 0
5.07032e-06 -6.938e-06 0
-0.264008 -1.69173 0
-0.899799 -0.781056 0
-1.8452 -0.266768 0
-0.0092691 -1.33565 0
-0.274916 -0.289652 0
0.000109138 -7.30931e-05 0
6.60419e-06 -1.40891e-05 0
0.00873097 -1.33566 0
0.0492128 -0.0500489 0
0.000117493 -0.00101609 0
0.0179452 -0.0617706 0
-3.41479e-05 -3.43443e-05 0
-0.667161 -1.24309 0
0.17555 -1.29328 0
-0.0775747 -0.104705 0
-0.164303 -0.14967 0
