# vtk DataFile Version 2.0
Unstructured Grid by M++
ASCII
DATASET UNSTRUCTURED_GRID
POINTS 81 float
  1.000000   0.625000 0
  0.750000   0.375000 0
  1.000000   0.000000 0
  0.875000   0.875000 0
  0.750000   0.125000 0
  1.000000   1.000000 0
  0.875000   0.250000 0
  0.625000   0.875000 0
  1.000000   0.750000 0
  0.875000   0.000000 0
  1.000000   0.250000 0
  0.625000   0.375000 0
  0.875000   0.500000 0
  0.625000   0.625000 0
  1.000000   0.500000 0
  0.750000   0.500000 0
  0.750000   1.000000 0
  1.000000   0.125000 0
  0.625000   0.250000 0
  0.750000   0.750000 0
  0.625000   0.000000 0
  0.125000   0.375000 0
  0.000000   0.500000 0
  0.125000   0.625000 0
  0.625000   1.000000 0
  1.000000   0.875000 0
  0.875000   0.125000 0
  0.500000   0.250000 0
  0.625000   0.500000 0
  0.250000   0.625000 0
  0.000000   0.625000 0
  0.375000   0.500000 0
  0.375000   0.000000 0
  0.000000   0.125000 0
  0.125000   0.875000 0
  0.875000   1.000000 0
  0.750000   0.250000 0
  0.375000   0.375000 0
  0.250000   0.375000 0
  0.625000   0.750000 0
  0.125000   0.125000 0
  0.500000   0.000000 0
  0.250000   0.875000 0
  0.125000   0.500000 0
  0.500000   0.375000 0
  0.125000   0.000000 0
  0.250000   0.750000 0
  0.250000   0.500000 0
  0.000000   0.875000 0
  0.875000   0.625000 0
  0.500000   0.750000 0
  0.750000   0.625000 0
  0.250000   0.000000 0
  0.375000   0.750000 0
  0.750000   0.875000 0
  0.625000   0.125000 0
  0.250000   0.250000 0
  0.375000   1.000000 0
  0.375000   0.250000 0
  0.000000   0.375000 0
  0.500000   1.000000 0
  0.875000   0.750000 0
  0.750000   0.000000 0
  0.375000   0.125000 0
  0.500000   0.875000 0
  0.000000   0.000000 0
  0.125000   0.750000 0
  0.500000   0.625000 0
  0.125000   0.250000 0
  0.500000   0.125000 0
  0.250000   1.000000 0
  0.250000   0.125000 0
  0.000000   1.000000 0
  0.375000   0.875000 0
  0.000000   0.750000 0
  0.375000   0.625000 0
  0.000000   0.250000 0
  0.125000   1.000000 0
  1.000000   0.375000 0
  0.500000   0.500000 0
  0.875000   0.375000 0
CELLS 64 320
4 56 71 58 63
4 27 58 69 63
4 41 69 32 63
4 76 33 68 40
4 27 44 58 37
4 79 31 44 37
4 56 38 68 21
4 56 58 38 37
4 52 32 71 63
4 47 38 31 37
4 76 68 59 21
4 22 59 43 21
4 65 45 33 40
4 47 43 38 21
4 52 71 45 40
4 56 68 71 40
4 74 30 66 23
4 46 66 29 23
4 22 43 30 23
4 72 48 77 34
4 46 53 42 73
4 50 64 53 73
4 70 42 57 73
4 74 66 48 34
4 46 42 66 34
4 47 29 43 23
4 70 77 42 34
4 60 57 64 73
4 79 67 31 75
4 47 31 29 75
4 50 53 67 75
4 46 29 53 75
4 10 78 6 80
4 36 6 1 80
4 15 1 12 80
4 36 4 6 26
4 14 12 78 80
4 2 17 9 26
4 36 18 4 55
4 15 28 1 11
4 62 4 20 55
4 10 6 17 26
4 27 18 44 11
4 62 9 4 26
4 27 69 18 55
4 36 1 18 11
4 41 20 69 55
4 79 44 28 11
4 16 24 54 7
4 19 54 39 7
4 50 39 64 7
4 8 25 61 3
4 60 64 24 7
4 79 28 67 13
4 19 51 61 49
4 8 61 0 49
4 15 51 28 13
4 19 39 51 13
4 50 67 39 13
4 19 61 54 3
4 14 0 12 49
4 5 35 25 3
4 15 12 51 49
4 16 54 35 3
CELL_TYPES 64
8
8
8
8
8
8
8
8
8
8
8
8
8
8
8
8
8
8
8
8
8
8
8
8
8
8
8
8
8
8
8
8
8
8
8
8
8
8
8
8
8
8
8
8
8
8
8
8
8
8
8
8
8
8
8
8
8
8
8
8
8
8
8
8
CELL_DATA 64
VECTORS vector_value float
0.0924643 -0.109675 0
0.248528 -0.244547 0
0.0683027 -0.205064 0
0.13042 -0.534977 0
0.411246 -0.388723 0
0.244262 -0.652063 0
0.0603661 -0.145946 0
0.280341 -0.28258 0
0.103515 -0.150439 0
0.226092 -0.170437 0
0.0949119 -0.817792 0
0.147504 -1.02875 0
0.107569 -0.221699 0
0.360605 -0.326826 0
0.213165 -0.542615 0
0.184768 -0.358241 0
0.0186543 -1.49157 0
0.108923 -0.430602 0
0.163113 -1.36311 0
-0.237539 -1.15039 0
0.653443 -0.446026 0
0.328491 -0.988908 0
-0.385388 -0.683866 0
-0.0175546 -1.59637 0
0.291898 -0.818171 0
0.366104 -0.277741 0
-0.543308 -1.42037 0
0.0764738 -0.369024 0
0.266568 -0.528434 0
0.333433 -0.240608 0
0.850227 -1.19544 0
0.373818 -0.295234 0
-0.148787 -1.67325 0
-0.146572 -0.259845 0
-0.443541 -0.920804 0
-0.993666 -0.416446 0
0.0146697 -1.86355 0
-0.0806092 -0.458834 0
-0.0100797 -1.93831 0
0.0261638 -0.565563 0
0.082512 -3.40663 0
-0.425244 -0.914882 0
0.0851583 -3.39916 0
-0.209314 -0.234771 0
0.617573 -3.48292 0
-0.664525 -1.0327 0
0.215939 -2.77995 0
0.11637 -2.472 0
-0.308413 -1.76273 0
-0.26786 -1.75462 0
-0.183789 -1.15825 0
0.125013 -0.454791 0
0.209232 -1.07401 0
0.481536 -2.59053 0
0.0846776 -0.64235 0
0.0598966 -0.74661 0
0.512231 -0.417671 0
0.54064 -1.21295 0
0.484178 -1.98525 0
0.211482 -0.782869 0
0.468519 -1.38065 0
-0.297477 -0.48692 0
1.21537 -1.20126 0
-0.677107 -1.05269 0
