# vtk DataFile Version 2.0
Unstructured Grid by M++
ASCII
DATASET UNSTRUCTURED_GRID
POINTS 81 float
  1.000000   0.625000 0
  0.750000   0.375000 0
  1.000000   0.000000 0
  0.875000   0.875000 0
  0.750000   0.125000 0
  1.000000   1.000000 0
  0.875000   0.250000 0
  0.625000   0.875000 0
  1.000000   0.750000 0
  0.875000   0.000000 0
  1.000000   0.250000 0
  0.625000   0.375000 0
  0.875000   0.500000 0
  0.625000   0.625000 0
  1.000000   0.500000 0
  0.750000   0.500000 0
  0.750000   1.000000 0
  1.000000   0.125000 0
  0.625000   0.250000 0
  0.750000   0.750000 0
  0.625000   0.000000 0
  0.125000   0.375000 0
  0.000000   0.500000 0
  0.125000   0.625000 0
  0.625000   1.000000 0
  1.000000   0.875000 0
  0.875000   0.125000 0
  0.500000   0.250000 0
  0.625000   0.500000 0
  0.250000   0.625000 0
  0.000000   0.625000 0
  0.375000   0.500000 0
  0.375000   0.000000 0
  0.000000   0.125000 0
  0.125000   0.875000 0
  0.875000   1.000000 0
  0.750000   0.250000 0
  0.375000   0.375000 0
  0.250000   0.375000 0
  0.625000   0.750000 0
  0.125000   0.125000 0
  0.500000   0.000000 0
  0.250000   0.875000 0
  0.125000   0.500000 0
  0.500000   0.375000 0
  0.125000   0.000000 0
  0.250000   0.750000 0
  0.250000   0.500000 0
  0.000000   0.875000 0
  0.875000   0.625000 0
  0.500000   0.750000 0
  0.750000   0.625000 0
  0.250000   0.000000 0
  0.375000   0.750000 0
  0.750000   0.875000 0
  0.625000   0.125000 0
  0.250000   0.250000 0
  0.375000   1.000000 0
  0.375000   0.250000 0
  0.000000   0.375000 0
  0.500000   1.000000 0
  0.875000   0.750000 0
  0.750000   0.000000 0
  0.375000   0.125000 0
  0.500000   0.875000 0
  0.000000   0.000000 0
  0.125000   0.750000 0
  0.500000   0.625000 0
  0.125000   0.250000 0
  0.500000   0.125000 0
  0.250000   1.000000 0
  0.250000   0.125000 0
  0.000000   1.000000 0
  0.375000   0.875000 0
  0.000000   0.750000 0
  0.375000   0.625000 0
  0.000000   0.250000 0
  0.125000   1.000000 0
  1.000000   0.375000 0
  0.500000   0.500000 0
  0.875000   0.375000 0
CELLS 64 320
4 56 71 58 63
4 27 58 69 63
4 41 69 32 63
4 76 33 68 40
4 27 44 58 37
4 79 31 44 37
4 56 38 68 21
4 56 58 38 37
4 52 32 71 63
4 47 38 31 37
4 76 68 59 21
4 22 59 43 21
4 65 45 33 40
4 47 43 38 21
4 52 71 45 40
4 56 68 71 40
4 74 30 66 23
4 46 66 29 23
4 22 43 30 23
4 72 48 77 34
4 46 53 42 73
4 50 64 53 73
4 70 42 57 73
4 74 66 48 34
4 46 42 66 34
4 47 29 43 23
4 70 77 42 34
4 60 57 64 73
4 79 67 31 75
4 47 31 29 75
4 50 53 67 75
4 46 29 53 75
4 10 78 6 80
4 36 6 1 80
4 15 1 12 80
4 36 4 6 26
4 14 12 78 80
4 2 17 9 26
4 36 18 4 55
4 15 28 1 11
4 62 4 20 55
4 10 6 17 26
4 27 18 44 11
4 62 9 4 26
4 27 69 18 55
4 36 1 18 11
4 41 20 69 55
4 79 44 28 11
4 16 24 54 7
4 19 54 39 7
4 50 39 64 7
4 8 25 61 3
4 60 64 24 7
4 79 28 67 13
4 19 51 61 49
4 8 61 0 49
4 15 51 28 13
4 19 39 51 13
4 50 67 39 13
4 19 61 54 3
4 14 0 12 49
4 5 35 25 3
4 15 12 51 49
4 16 54 35 3
CELL_TYPES 64
8
8
8
8
8
8
8
8
8
8
8
8
8
8
8
8
8
8
8
8
8
8
8
8
8
8
8
8
8
8
8
8
8
8
8
8
8
8
8
8
8
8
8
8
8
8
8
8
8
8
8
8
8
8
8
8
8
8
8
8
8
8
8
8
CELL_DATA 64
VECTORS vector_value float
-0.0527268 -0.653843 0
-0.52082 -0.933527 0
-1.80871 -4.27627 0
0.0644363 -0.275662 0
-0.00679837 -0.490114 0
0.898805 -1.07695 0
0.127317 -0.110667 0
0.0673183 -0.264439 0
0.0551454 -0.77783 0
0.0788404 -0.193238 0
0.0565128 -0.436642 0
0.0778427 -0.586442 0
0.0366634 -0.165846 0
0.08197 -0.0844673 0
0.0829891 -0.124678 0
0.1433 -0.124268 0
0.121744 -0.522519 0
0.592588 -1.33812 0
-0.0576929 -0.621676 0
-0.178528 -1.52659 0
0.0592689 -0.690968 0
0.0146728 -0.446238 0
-0.0146738 -0.364318 0
0.302209 -1.15231 0
0.444972 -1.02935 0
0.266771 -0.368792 0
-0.45426 -0.801564 0
0.42658 -0.868953 0
0.618101 -0.69445 0
1.13622 -1.08136 0
0.370233 -0.573183 0
0.500356 -0.780531 0
0.0764911 -0.464199 0
-0.0864536 -0.282297 0
-0.847338 -1.49949 0
0.0751615 -0.182058 0
-0.0096246 -0.326726 0
-0.00326022 -0.539171 0
-0.69903 -1.53936 0
-1.05199 -3.23562 0
-0.025933 -0.273692 0
0.0185795 -0.576571 0
-0.884566 -2.42319 0
0.007673 -0.331667 0
-2.25587 -3.71471 0
-1.44674 -3.52845 0
-0.724056 -1.51085 0
0.506471 -0.99707 0
1.0855 -1.13792 0
0.431622 -1.04516 0
0.233737 -0.319313 0
-0.020604 -0.879228 0
0.914999 -0.823278 0
0.335132 -0.371583 0
0.572681 -2.49326 0
0.29711 -1.43896 0
-0.138091 -1.01756 0
0.348026 -0.742757 0
0.15343 -0.11067 0
0.173547 -2.43743 0
-0.558453 -1.21008 0
-0.0311972 -1.27197 0
-1.20504 -2.6345 0
0.516051 -1.20542 0
