# vtk DataFile Version 2.0
Unstructured Grid by M++
ASCII
DATASET UNSTRUCTURED_GRID
POINTS 81 float
  1.000000   0.625000 0
  0.750000   0.375000 0
  1.000000   0.000000 0
  0.875000   0.875000 0
  0.750000   0.125000 0
  1.000000   1.000000 0
  0.875000   0.250000 0
  0.625000   0.875000 0
  1.000000   0.750000 0
  0.875000   0.000000 0
  1.000000   0.250000 0
  0.625000   0.375000 0
  0.875000   0.500000 0
  0.625000   0.625000 0
  1.000000   0.500000 0
  0.750000   0.500000 0
  0.750000   1.000000 0
  1.000000   0.125000 0
  0.625000   0.250000 0
  0.750000   0.750000 0
  0.625000   0.000000 0
  0.125000   0.375000 0
  0.000000   0.500000 0
  0.125000   0.625000 0
  0.625000   1.000000 0
  1.000000   0.875000 0
  0.875000   0.125000 0
  0.500000   0.250000 0
  0.625000   0.500000 0
  0.250000   0.625000 0
  0.000000   0.625000 0
  0.375000   0.500000 0
  0.375000   0.000000 0
  0.000000   0.125000 0
  0.125000   0.875000 0
  0.875000   1.000000 0
  0.750000   0.250000 0
  0.375000   0.375000 0
  0.250000   0.375000 0
  0.625000   0.750000 0
  0.125000   0.125000 0
  0.500000   0.000000 0
  0.250000   0.875000 0
  0.125000   0.500000 0
  0.500000   0.375000 0
  0.125000   0.000000 0
  0.250000   0.750000 0
  0.250000   0.500000 0
  0.000000   0.875000 0
  0.875000   0.625000 0
  0.500000   0.750000 0
  0.750000   0.625000 0
  0.250000   0.000000 0
  0.375000   0.750000 0
  0.750000   0.875000 0
  0.625000   0.125000 0
  0.250000   0.250000 0
  0.375000   1.000000 0
  0.375000   0.250000 0
  0.000000   0.375000 0
  0.500000   1.000000 0
  0.875000   0.750000 0
  0.750000   0.000000 0
  0.375000   0.125000 0
  0.500000   0.875000 0
  0.000000   0.000000 0
  0.125000   0.750000 0
  0.500000   0.625000 0
  0.125000   0.250000 0
  0.500000   0.125000 0
  0.250000   1.000000 0
  0.250000   0.125000 0
  0.000000   1.000000 0
  0.375000   0.875000 0
  0.000000   0.750000 0
  0.375000   0.625000 0
  0.000000   0.250000 0
  0.125000   1.000000 0
  1.000000   0.375000 0
  0.500000   0.500000 0
  0.875000   0.375000 0
CELLS 64 320
4 56 71 58 63
4 27 58 69 63
4 41 69 32 63
4 76 33 68 40
4 27 44 58 37
4 79 31 44 37
4 56 38 68 21
4 56 58 38 37
4 52 32 71 63
4 47 38 31 37
4 76 68 59 21
4 22 59 43 21
4 65 45 33 40
4 47 43 38 21
4 52 71 45 40
4 56 68 71 40
4 74 30 66 23
4 46 66 29 23
4 22 43 30 23
4 72 48 77 34
4 46 53 42 73
4 50 64 53 73
4 70 42 57 73
4 74 66 48 34
4 46 42 66 34
4 47 29 43 23
4 70 77 42 34
4 60 57 64 73
4 79 67 31 75
4 47 31 29 75
4 50 53 67 75
4 46 29 53 75
4 10 78 6 80
4 36 6 1 80
4 15 1 12 80
4 36 4 6 26
4 14 12 78 80
4 2 17 9 26
4 36 18 4 55
4 15 28 1 11
4 62 4 20 55
4 10 6 17 26
4 27 18 44 11
4 62 9 4 26
4 27 69 18 55
4 36 1 18 11
4 41 20 69 55
4 79 44 28 11
4 16 24 54 7
4 19 54 39 7
4 50 39 64 7
4 8 25 61 3
4 60 64 24 7
4 79 28 67 13
4 19 51 61 49
4 8 61 0 49
4 15 51 28 13
4 19 39 51 13
4 50 67 39 13
4 19 61 54 3
4 14 0 12 49
4 5 35 25 3
4 15 12 51 49
4 16 54 35 3
CELL_TYPES 64
8
8
8
8
8
8
8
8
8
8
8
8
8
8
8
8
8
8
8
8
8
8
8
8
8
8
8
8
8
8
8
8
8
8
8
8
8
8
8
8
8
8
8
8
8
8
8
8
8
8
8
8
8
8
8
8
8
8
8
8
8
8
8
8
CELL_DATA 64
VECTORS vector_value float
0.172179 -1.06613 0
-0.867634 -2.56257 0
-0.0326922 -1.79386 0
0.472704 -0.964217 0
0.0119424 -1.33482 0
0.440319 -1.0639 0
0.087819 -0.216786 0
0.340118 -0.419566 0
-0.024273 -2.23775 0
0.302786 -0.159907 0
0.0547161 -1.58471 0
0.0776945 -1.70438 0
0.0624801 -0.461128 0
0.367094 -0.628952 0
0.191532 -0.221697 0
0.932665 -0.304594 0
-0.0823548 -2.31664 0
0.0503214 -1.2205 0
0.25145 -1.99007 0
-0.240935 -1.60424 0
-0.286448 -0.33873 0
-0.0726978 -0.1033 0
-0.854442 -0.853843 0
-0.315906 -1.55291 0
-0.608541 -1.82594 0
0.735853 -1.02176 0
-0.796798 -1.04865 0
-0.21572 -0.249514 0
0.410784 -0.769466 0
0.965088 -0.166247 0
0.0027463 -0.133687 0
0.0792484 -0.185515 0
-0.14191 -1.14442 0
-0.362847 -1.00219 0
-0.281006 -1.13463 0
-0.854314 -0.920275 0
-0.155612 -1.35248 0
-0.0121794 -0.349997 0
-0.494085 -0.672427 0
-0.19852 -0.709318 0
-0.626721 -0.996762 0
-0.307135 -0.722125 0
-0.689216 -1.61698 0
-0.096289 -0.338708 0
-0.516729 -0.787665 0
-0.521913 -0.680542 0
-0.145632 -1.6001 0
0.14264 -1.24644 0
0.567298 -1.33374 0
-0.0501308 -1.37663 0
-0.060773 -0.426979 0
0.0450583 -1.12103 0
0.487609 -0.640009 0
-0.217896 -0.723586 0
0.0708723 -1.1028 0
0.0278014 -1.22043 0
-0.0577029 -0.778484 0
-0.0355933 -1.35945 0
-0.0387597 -0.460993 0
0.0131523 -1.25449 0
0.163055 -1.58877 0
0.0538895 -1.12341 0
0.268298 -0.961612 0
0.245436 -1.14659 0
