# vtk DataFile Version 2.0
Unstructured Grid by M++
ASCII
DATASET UNSTRUCTURED_GRID
POINTS 81 float
  1.000000   0.625000 0
  0.750000   0.375000 0
  1.000000   0.000000 0
  0.875000   0.875000 0
  0.750000   0.125000 0
  1.000000   1.000000 0
  0.875000   0.250000 0
  0.625000   0.875000 0
  1.000000   0.750000 0
  0.875000   0.000000 0
  1.000000   0.250000 0
  0.625000   0.375000 0
  0.875000   0.500000 0
  0.625000   0.625000 0
  1.000000   0.500000 0
  0.750000   0.500000 0
  0.750000   1.000000 0
  1.000000   0.125000 0
  0.625000   0.250000 0
  0.750000   0.750000 0
  0.625000   0.000000 0
  0.125000   0.375000 0
  0.000000   0.500000 0
  0.125000   0.625000 0
  0.625000   1.000000 0
  1.000000   0.875000 0
  0.875000   0.125000 0
  0.500000   0.250000 0
  0.625000   0.500000 0
  0.250000   0.625000 0
  0.000000   0.625000 0
  0.375000   0.500000 0
  0.375000   0.000000 0
  0.000000   0.125000 0
  0.125000   0.875000 0
  0.875000   1.000000 0
  0.750000   0.250000 0
  0.375000   0.375000 0
  0.250000   0.375000 0
  0.625000   0.750000 0
  0.125000   0.125000 0
  0.500000   0.000000 0
  0.250000   0.875000 0
  0.125000   0.500000 0
  0.500000   0.375000 0
  0.125000   0.000000 0
  0.250000   0.750000 0
  0.250000   0.500000 0
  0.000000   0.875000 0
  0.875000   0.625000 0
  0.500000   0.750000 0
  0.750000   0.625000 0
  0.250000   0.000000 0
  0.375000   0.750000 0
  0.750000   0.875000 0
  0.625000   0.125000 0
  0.250000   0.250000 0
  0.375000   1.000000 0
  0.375000   0.250000 0
  0.000000   0.375000 0
  0.500000   1.000000 0
  0.875000   0.750000 0
  0.750000   0.000000 0
  0.375000   0.125000 0
  0.500000   0.875000 0
  0.000000   0.000000 0
  0.125000   0.750000 0
  0.500000   0.625000 0
  0.125000   0.250000 0
  0.500000   0.125000 0
  0.250000   1.000000 0
  0.250000   0.125000 0
  0.000000   1.000000 0
  0.375000   0.875000 0
  0.000000   0.750000 0
  0.375000   0.625000 0
  0.000000   0.250000 0
  0.125000   1.000000 0
  1.000000   0.375000 0
  0.500000   0.500000 0
  0.875000   0.375000 0
CELLS 64 320
4 56 71 58 63
4 27 58 69 63
4 41 69 32 63
4 76 33 68 40
4 27 44 58 37
4 79 31 44 37
4 56 38 68 21
4 56 58 38 37
4 52 32 71 63
4 47 38 31 37
4 76 68 59 21
4 22 59 43 21
4 65 45 33 40
4 47 43 38 21
4 52 71 45 40
4 56 68 71 40
4 74 30 66 23
4 46 66 29 23
4 22 43 30 23
4 72 48 77 34
4 46 53 42 73
4 50 64 53 73
4 70 42 57 73
4 74 66 48 34
4 46 42 66 34
4 47 29 43 23
4 70 77 42 34
4 60 57 64 73
4 79 67 31 75
4 47 31 29 75
4 50 53 67 75
4 46 29 53 75
4 10 78 6 80
4 36 6 1 80
4 15 1 12 80
4 36 4 6 26
4 14 12 78 80
4 2 17 9 26
4 36 18 4 55
4 15 28 1 11
4 62 4 20 55
4 10 6 17 26
4 27 18 44 11
4 62 9 4 26
4 27 69 18 55
4 36 1 18 11
4 41 20 69 55
4 79 44 28 11
4 16 24 54 7
4 19 54 39 7
4 50 39 64 7
4 8 25 61 3
4 60 64 24 7
4 79 28 67 13
4 19 51 61 49
4 8 61 0 49
4 15 51 28 13
4 19 39 51 13
4 50 67 39 13
4 19 61 54 3
4 14 0 12 49
4 5 35 25 3
4 15 12 51 49
4 16 54 35 3
CELL_TYPES 64
8
8
8
8
8
8
8
8
8
8
8
8
8
8
8
8
8
8
8
8
8
8
8
8
8
8
8
8
8
8
8
8
8
8
8
8
8
8
8
8
8
8
8
8
8
8
8
8
8
8
8
8
8
8
8
8
8
8
8
8
8
8
8
8
CELL_DATA 64
VECTORS vector_value float
-0.605388 -2.85478 0
-0.30124 -0.756561 0
-0.0760481 -0.681096 0
-0.030222 -0.15363 0
-0.448262 -0.537289 0
-1.483 -1.04294 0
-0.284639 -0.628167 0
-0.899715 -3.62321 0
-0.275539 -2.06227 0
-0.638656 -2.37215 0
-0.0129367 -0.112599 0
0.0369891 -0.116468 0
-0.340113 -0.759163 0
0.0567729 -0.471514 0
-0.602088 -2.00496 0
-0.617058 -1.55148 0
0.00897389 -0.285589 0
0.130544 -0.561367 0
0.0481903 -0.255897 0
0.134189 -1.2362 0
0.46457 -1.2316 0
0.147445 -0.728417 0
0.126522 -1.1566 0
0.218662 -0.630028 0
0.726432 -1.02672 0
0.0667028 -0.362548 0
0.161345 -0.683301 0
0.194009 -0.793527 0
0.144916 -1.10521 0
0.148224 -1.56316 0
0.142565 -0.861981 0
0.338803 -1.83562 0
0.369541 -1.38187 0
0.13841 -0.889582 0
-0.163764 -2.25473 0
0.00344295 -0.0853493 0
0.32292 -0.680339 0
-0.0408601 -1.77203 0
-0.00275721 -0.386672 0
-1.32433 -0.538089 0
0.0260778 -0.225845 0
-0.00307655 -1.89888 0
-0.384199 -0.516958 0
0.0101173 -0.360142 0
-0.189361 -0.312645 0
-0.278401 -0.310333 0
-0.0145594 -0.134492 0
-1.22632 -0.523769 0
1.73231 -0.707769 0
0.0397387 -0.114012 0
0.0538938 -0.0722981 0
-0.441406 -3.207 0
0.830496 -0.447411 0
-0.180399 -0.513837 0
-0.652725 -2.43914 0
-0.409832 -1.7903 0
-0.469628 -0.25343 0
0.0264351 -0.13674 0
0.0332889 -0.0892564 0
0.014621 -0.989928 0
-0.408599 -0.577004 0
0.990518 -2.14306 0
-0.918141 -3.36891 0
2.02183 -0.832121 0
