# vtk DataFile Version 2.0
Unstructured Grid by M++
ASCII
DATASET UNSTRUCTURED_GRID
POINTS 81 float
  1.000000   0.625000 0
  0.750000   0.375000 0
  1.000000   0.000000 0
  0.875000   0.875000 0
  0.750000   0.125000 0
  1.000000   1.000000 0
  0.875000   0.250000 0
  0.625000   0.875000 0
  1.000000   0.750000 0
  0.875000   0.000000 0
  1.000000   0.250000 0
  0.625000   0.375000 0
  0.875000   0.500000 0
  0.625000   0.625000 0
  1.000000   0.500000 0
  0.750000   0.500000 0
  0.750000   1.000000 0
  1.000000   0.125000 0
  0.625000   0.250000 0
  0.750000   0.750000 0
  0.625000   0.000000 0
  0.125000   0.375000 0
  0.000000   0.500000 0
  0.125000   0.625000 0
  0.625000   1.000000 0
  1.000000   0.875000 0
  0.875000   0.125000 0
  0.500000   0.250000 0
  0.625000   0.500000 0
  0.250000   0.625000 0
  0.000000   0.625000 0
  0.375000   0.500000 0
  0.375000   0.000000 0
  0.000000   0.125000 0
  0.125000   0.875000 0
  0.875000   1.000000 0
  0.750000   0.250000 0
  0.375000   0.375000 0
  0.250000   0.375000 0
  0.625000   0.750000 0
  0.125000   0.125000 0
  0.500000   0.000000 0
  0.250000   0.875000 0
  0.125000   0.500000 0
  0.500000   0.375000 0
  0.125000   0.000000 0
  0.250000   0.750000 0
  0.250000   0.500000 0
  0.000000   0.875000 0
  0.875000   0.625000 0
  0.500000   0.750000 0
  0.750000   0.625000 0
  0.250000   0.000000 0
  0.375000   0.750000 0
  0.750000   0.875000 0
  0.625000   0.125000 0
  0.250000   0.250000 0
  0.375000   1.000000 0
  0.375000   0.250000 0
  0.000000   0.375000 0
  0.500000   1.000000 0
  0.875000   0.750000 0
  0.750000   0.000000 0
  0.375000   0.125000 0
  0.500000   0.875000 0
  0.000000   0.000000 0
  0.125000   0.750000 0
  0.500000   0.625000 0
  0.125000   0.250000 0
  0.500000   0.125000 0
  0.250000   1.000000 0
  0.250000   0.125000 0
  0.000000   1.000000 0
  0.375000   0.875000 0
  0.000000   0.750000 0
  0.375000   0.625000 0
  0.000000   0.250000 0
  0.125000   1.000000 0
  1.000000   0.375000 0
  0.500000   0.500000 0
  0.875000   0.375000 0
CELLS 64 320
4 56 71 58 63
4 27 58 69 63
4 41 69 32 63
4 76 33 68 40
4 27 44 58 37
4 79 31 44 37
4 56 38 68 21
4 56 58 38 37
4 52 32 71 63
4 47 38 31 37
4 76 68 59 21
4 22 59 43 21
4 65 45 33 40
4 47 43 38 21
4 52 71 45 40
4 56 68 71 40
4 74 30 66 23
4 46 66 29 23
4 22 43 30 23
4 72 48 77 34
4 46 53 42 73
4 50 64 53 73
4 70 42 57 73
4 74 66 48 34
4 46 42 66 34
4 47 29 43 23
4 70 77 42 34
4 60 57 64 73
4 79 67 31 75
4 47 31 29 75
4 50 53 67 75
4 46 29 53 75
4 10 78 6 80
4 36 6 1 80
4 15 1 12 80
4 36 4 6 26
4 14 12 78 80
4 2 17 9 26
4 36 18 4 55
4 15 28 1 11
4 62 4 20 55
4 10 6 17 26
4 27 18 44 11
4 62 9 4 26
4 27 69 18 55
4 36 1 18 11
4 41 20 69 55
4 79 44 28 11
4 16 24 54 7
4 19 54 39 7
4 50 39 64 7
4 8 25 61 3
4 60 64 24 7
4 79 28 67 13
4 19 51 61 49
4 8 61 0 49
4 15 51 28 13
4 19 39 51 13
4 50 67 39 13
4 19 61 54 3
4 14 0 12 49
4 5 35 25 3
4 15 12 51 49
4 16 54 35 3
CELL_TYPES 64
8
8
8
8
8
8
8
8
8
8
8
8
8
8
8
8
8
8
8
8
8
8
8
8
8
8
8
8
8
8
8
8
8
8
8
8
8
8
8
8
8
8
8
8
8
8
8
8
8
8
8
8
8
8
8
8
8
8
8
8
8
8
8
8
CELL_DATA 64
VECTORS vector_value float
0.715589 -0.639301 0
0.482572 -0.950759 0
0.0352502 -2.31575 0
0.0257786 -0.137591 0
0.553834 -0.214095 0
1.21696 -0.478998 0
0.702941 -1.36186 0
1.19686 -0.789465 0
0.150812 -0.309091 0
0.833231 -0.659654 0
0.0714529 -0.21517 0
0.192065 -0.437671 0
0.000446413 -0.105265 0
0.548288 -2.09738 0
0.00355095 -0.0959048 0
0.335335 -0.533579 0
0.111569 -1.31571 0
0.100468 -1.5488 0
0.228543 -0.815403 0
-0.24779 -1.47466 0
-0.305555 -0.416212 0
-0.219777 -0.308649 0
-0.433278 -0.409208 0
0.0653775 -1.40372 0
-0.014194 -1.56986 0
0.299556 -2.01154 0
-0.628569 -1.07217 0
0.0464764 -0.744148 0
-0.051754 -0.406823 0
0.0687779 -0.97497 0
-0.225827 -0.291839 0
-0.0570145 -0.831302 0
-0.0271032 -0.0492878 0
-0.176065 -0.524111 0
-0.684577 -0.841026 0
0.34218 -0.455426 0
-0.132698 -0.244358 0
0.189174 -0.663996 0
-0.753902 -1.96873 0
-0.482917 -1.67049 0
-0.054828 -0.608147 0
0.150903 -0.214506 0
0.518245 -1.84935 0
0.0196712 -0.0757249 0
-0.861088 -3.1001 0
-0.0199109 -2.99665 0
-0.408452 -3.82612 0
0.787009 -1.57042 0
0.186604 -1.3501 0
-0.0745996 -0.573224 0
-0.253604 -1.3299 0
0.0140861 -1.5145 0
0.218829 -1.06035 0
-0.118379 -1.31086 0
-0.193581 -1.00093 0
-0.152942 -1.45988 0
-0.121588 -0.21629 0
-0.144202 -0.22205 0
-0.189708 -1.32948 0
0.175646 -0.883943 0
-0.421384 -0.994169 0
0.243491 -1.37358 0
-0.591458 -1.26995 0
0.313321 -0.515786 0
