# vtk DataFile Version 2.0
Unstructured Grid by M++
ASCII
DATASET UNSTRUCTURED_GRID
POINTS 81 float
  1.000000   0.625000 0
  0.750000   0.375000 0
  1.000000   0.000000 0
  0.875000   0.875000 0
  0.750000   0.125000 0
  1.000000   1.000000 0
  0.875000   0.250000 0
  0.625000   0.875000 0
  1.000000   0.750000 0
  0.875000   0.000000 0
  1.000000   0.250000 0
  0.625000   0.375000 0
  0.875000   0.500000 0
  0.625000   0.625000 0
  1.000000   0.500000 0
  0.750000   0.500000 0
  0.750000   1.000000 0
  1.000000   0.125000 0
  0.625000   0.250000 0
  0.750000   0.750000 0
  0.625000   0.000000 0
  0.125000   0.375000 0
  0.000000   0.500000 0
  0.125000   0.625000 0
  0.625000   1.000000 0
  1.000000   0.875000 0
  0.875000   0.125000 0
  0.500000   0.250000 0
  0.625000   0.500000 0
  0.250000   0.625000 0
  0.000000   0.625000 0
  0.375000   0.500000 0
  0.375000   0.000000 0
  0.000000   0.125000 0
  0.125000   0.875000 0
  0.875000   1.000000 0
  0.750000   0.250000 0
  0.375000   0.375000 0
  0.250000   0.375000 0
  0.625000   0.750000 0
  0.125000   0.125000 0
  0.500000   0.000000 0
  0.250000   0.875000 0
  0.125000   0.500000 0
  0.500000   0.375000 0
  0.125000   0.000000 0
  0.250000   0.750000 0
  0.250000   0.500000 0
  0.000000   0.875000 0
  0.875000   0.625000 0
  0.500000   0.750000 0
  0.750000   0.625000 0
  0.250000   0.000000 0
  0.375000   0.750000 0
  0.750000   0.875000 0
  0.625000   0.125000 0
  0.250000   0.250000 0
  0.375000   1.000000 0
  0.375000   0.250000 0
  0.000000   0.375000 0
  0.500000   1.000000 0
  0.875000   0.750000 0
  0.750000   0.000000 0
  0.375000   0.125000 0
  0.500000   0.875000 0
  0.000000   0.000000 0
  0.125000   0.750000 0
  0.500000   0.625000 0
  0.125000   0.250000 0
  0.500000   0.125000 0
  0.250000   1.000000 0
  0.250000   0.125000 0
  0.000000   1.000000 0
  0.375000   0.875000 0
  0.000000   0.750000 0
  0.375000   0.625000 0
  0.000000   0.250000 0
  0.125000   1.000000 0
  1.000000   0.375000 0
  0.500000   0.500000 0
  0.875000   0.375000 0
CELLS 64 320
4 56 71 58 63
4 27 58 69 63
4 41 69 32 63
4 76 33 68 40
4 27 44 58 37
4 79 31 44 37
4 56 38 68 21
4 56 58 38 37
4 52 32 71 63
4 47 38 31 37
4 76 68 59 21
4 22 59 43 21
4 65 45 33 40
4 47 43 38 21
4 52 71 45 40
4 56 68 71 40
4 74 30 66 23
4 46 66 29 23
4 22 43 30 23
4 72 48 77 34
4 46 53 42 73
4 50 64 53 73
4 70 42 57 73
4 74 66 48 34
4 46 42 66 34
4 47 29 43 23
4 70 77 42 34
4 60 57 64 73
4 79 67 31 75
4 47 31 29 75
4 50 53 67 75
4 46 29 53 75
4 10 78 6 80
4 36 6 1 80
4 15 1 12 80
4 36 4 6 26
4 14 12 78 80
4 2 17 9 26
4 36 18 4 55
4 15 28 1 11
4 62 4 20 55
4 10 6 17 26
4 27 18 44 11
4 62 9 4 26
4 27 69 18 55
4 36 1 18 11
4 41 20 69 55
4 79 44 28 11
4 16 24 54 7
4 19 54 39 7
4 50 39 64 7
4 8 25 61 3
4 60 64 24 7
4 79 28 67 13
4 19 51 61 49
4 8 61 0 49
4 15 51 28 13
4 19 39 51 13
4 50 67 39 13
4 19 61 54 3
4 14 0 12 49
4 5 35 25 3
4 15 12 51 49
4 16 54 35 3
CELL_TYPES 64
8
8
8
8
8
8
8
8
8
8
8
8
8
8
8
8
8
8
8
8
8
8
8
8
8
8
8
8
8
8
8
8
8
8
8
8
8
8
8
8
8
8
8
8
8
8
8
8
8
8
8
8
8
8
8
8
8
8
8
8
8
8
8
8
CELL_DATA 64
VECTORS vector_value float
0.963069 -1.70244 0
0.503909 -0.589586 0
0.244865 -0.752784 0
0.912925 -3.42876 0
0.108392 -0.553009 0
0.259186 -0.578442 0
0.368286 -1.33499 0
0.141736 -0.913898 0
0.350529 -1.93498 0
-0.0796597 -1.32235 0
-1.22485 -3.7557 0
-0.675009 -0.804889 0
0.0719113 -2.03006 0
-2.11248 -4.15156 0
0.668289 -1.18068 0
0.859975 -0.487489 0
0.0420531 -0.115014 0
0.131299 -0.338408 0
-0.0425782 -0.0886298 0
0.267428 -0.602756 0
0.246495 -1.19681 0
-0.574055 -4.6125 0
1.03194 -1.0845 0
0.145079 -0.364995 0
0.162041 -0.234532 0
-2.00615 -2.49465 0
0.919719 -0.729097 0
-0.415051 -2.76361 0
-0.697001 -1.08313 0
-2.62232 -3.14677 0
-1.41154 -3.03 0
-1.65159 -3.14506 0
-0.0108486 -0.153575 0
-0.0389005 -0.0906199 0
-0.0714201 -0.108121 0
-0.0184301 -0.0698843 0
-0.029475 -0.214949 0
0.00141191 -0.139608 0
-0.0475321 -0.472206 0
-0.065664 -0.368426 0
0.0740576 -0.629192 0
-0.00547643 -0.138731 0
0.113445 -0.663863 0
-0.000429603 -0.0611088 0
0.201601 -1.11091 0
-0.000768632 -0.534344 0
0.155873 -1.27159 0
0.113734 -0.451268 0
-0.94563 -0.403317 0
-0.276629 -0.064821 0
-0.242079 -0.124183 0
-0.126365 -0.641614 0
-1.82731 -0.594157 0
-0.314544 -0.312593 0
-0.327742 -0.518177 0
-0.0603648 -0.631597 0
-0.501344 -0.223183 0
-0.208833 -0.0516879 0
-0.209039 -0.170052 0
-0.382765 -0.760547 0
-0.133108 -0.40014 0
-0.0657346 -0.98724 0
-0.32092 -0.250907 0
-0.169302 -0.835325 0
