# vtk DataFile Version 2.0
Unstructured Grid by M++
ASCII
DATASET UNSTRUCTURED_GRID
POINTS 81 float
  1.000000   0.625000 0
  0.750000   0.375000 0
  1.000000   0.000000 0
  0.875000   0.875000 0
  0.750000   0.125000 0
  1.000000   1.000000 0
  0.875000   0.250000 0
  0.625000   0.875000 0
  1.000000   0.750000 0
  0.875000   0.000000 0
  1.000000   0.250000 0
  0.625000   0.375000 0
  0.875000   0.500000 0
  0.625000   0.625000 0
  1.000000   0.500000 0
  0.750000   0.500000 0
  0.750000   1.000000 0
  1.000000   0.125000 0
  0.625000   0.250000 0
  0.750000   0.750000 0
  0.625000   0.000000 0
  0.125000   0.375000 0
  0.000000   0.500000 0
  0.125000   0.625000 0
  0.625000   1.000000 0
  1.000000   0.875000 0
  0.875000   0.125000 0
  0.500000   0.250000 0
  0.625000   0.500000 0
  0.250000   0.625000 0
  0.000000   0.625000 0
  0.375000   0.500000 0
  0.375000   0.000000 0
  0.000000   0.125000 0
  0.125000   0.875000 0
  0.875000   1.000000 0
  0.750000   0.250000 0
  0.375000   0.375000 0
  0.250000   0.375000 0
  0.625000   0.750000 0
  0.125000   0.125000 0
  0.500000   0.000000 0
  0.250000   0.875000 0
  0.125000   0.500000 0
  0.500000   0.375000 0
  0.125000   0.000000 0
  0.250000   0.750000 0
  0.250000   0.500000 0
  0.000000   0.875000 0
  0.875000   0.625000 0
  0.500000   0.750000 0
  0.750000   0.625000 0
  0.250000   0.000000 0
  0.375000   0.750000 0
  0.750000   0.875000 0
  0.625000   0.125000 0
  0.250000   0.250000 0
  0.375000   1.000000 0
  0.375000   0.250000 0
  0.000000   0.375000 0
  0.500000   1.000000 0
  0.875000   0.750000 0
  0.750000   0.000000 0
  0.375000   0.125000 0
  0.500000   0.875000 0
  0.000000   0.000000 0
  0.125000   0.750000 0
  0.500000   0.625000 0
  0.125000   0.250000 0
  0.500000   0.125000 0
  0.250000   1.000000 0
  0.250000   0.125000 0
  0.000000   1.000000 0
  0.375000   0.875000 0
  0.000000   0.750000 0
  0.375000   0.625000 0
  0.000000   0.250000 0
  0.125000   1.000000 0
  1.000000   0.375000 0
  0.500000   0.500000 0
  0.875000   0.375000 0
CELLS 64 320
4 56 71 58 63
4 27 58 69 63
4 41 69 32 63
4 76 33 68 40
4 27 44 58 37
4 79 31 44 37
4 56 38 68 21
4 56 58 38 37
4 52 32 71 63
4 47 38 31 37
4 76 68 59 21
4 22 59 43 21
4 65 45 33 40
4 47 43 38 21
4 52 71 45 40
4 56 68 71 40
4 74 30 66 23
4 46 66 29 23
4 22 43 30 23
4 72 48 77 34
4 46 53 42 73
4 50 64 53 73
4 70 42 57 73
4 74 66 48 34
4 46 42 66 34
4 47 29 43 23
4 70 77 42 34
4 60 57 64 73
4 79 67 31 75
4 47 31 29 75
4 50 53 67 75
4 46 29 53 75
4 10 78 6 80
4 36 6 1 80
4 15 1 12 80
4 36 4 6 26
4 14 12 78 80
4 2 17 9 26
4 36 18 4 55
4 15 28 1 11
4 62 4 20 55
4 10 6 17 26
4 27 18 44 11
4 62 9 4 26
4 27 69 18 55
4 36 1 18 11
4 41 20 69 55
4 79 44 28 11
4 16 24 54 7
4 19 54 39 7
4 50 39 64 7
4 8 25 61 3
4 60 64 24 7
4 79 28 67 13
4 19 51 61 49
4 8 61 0 49
4 15 51 28 13
4 19 39 51 13
4 50 67 39 13
4 19 61 54 3
4 14 0 12 49
4 5 35 25 3
4 15 12 51 49
4 16 54 35 3
CELL_TYPES 64
8
8
8
8
8
8
8
8
8
8
8
8
8
8
8
8
8
8
8
8
8
8
8
8
8
8
8
8
8
8
8
8
8
8
8
8
8
8
8
8
8
8
8
8
8
8
8
8
8
8
8
8
8
8
8
8
8
8
8
8
8
8
8
8
CELL_DATA 64
VECTORS vector_value float
0.506296 -1.11049 0
0.709884 -2.89465 0
0.695875 -2.78738 0
0.00818095 -0.151304 0
0.74594 -2.28227 0
-0.0982352 -2.30785 0
0.430045 -0.622646 0
1.04136 -2.1017 0
0.182063 -0.452533 0
-0.0654729 -1.54746 0
0.063812 -0.20381 0
0.121848 -0.387361 0
-0.000403626 -0.150352 0
0.297077 -1.12874 0
0.0203089 -0.192556 0
0.103756 -0.347519 0
0.0634698 -1.07757 0
0.453391 -0.907236 0
0.224622 -0.894173 0
-0.0951768 -1.19126 0
0.129918 -0.822239 0
-0.0778481 -0.858715 0
-0.424651 -0.866181 0
0.0384041 -1.14447 0
0.177961 -1.41196 0
0.127734 -0.516072 0
-0.353518 -1.17313 0
-0.263123 -0.927288 0
-0.186317 -2.23339 0
0.0334426 -1.42749 0
-0.0993259 -1.9731 0
0.558219 -0.974662 0
-0.0331839 -0.623991 0
-0.0848927 -0.278181 0
0.205339 -0.815626 0
-0.306393 -0.383066 0
0.172268 -0.25244 0
-0.0339982 -0.159695 0
-0.069075 -0.397984 0
-0.854891 -1.2575 0
-0.0711923 -0.864897 0
-0.0924752 -0.309264 0
-0.453497 -1.78673 0
-0.133355 -0.222784 0
0.491225 -2.40572 0
-0.0332429 -0.100675 0
0.469681 -3.16981 0
-0.130809 -0.303015 0
-0.325171 -1.10206 0
-0.23872 -0.77503 0
-0.462134 -1.37538 0
-0.0763386 -0.744086 0
-0.188296 -0.871407 0
-0.208886 -0.385631 0
-0.222877 -0.840569 0
-0.229144 -0.519886 0
-0.0326284 -1.55002 0
-0.0720174 -1.04443 0
-0.106724 -0.662547 0
-0.221825 -0.868127 0
-0.0401895 -0.121989 0
-0.092758 -1.07889 0
-0.280814 -0.871227 0
-0.206321 -0.789781 0
