# vtk DataFile Version 2.0
Unstructured Grid by M++
ASCII
DATASET UNSTRUCTURED_GRID
POINTS 81 float
  1.000000   0.625000 0
  0.750000   0.375000 0
  1.000000   0.000000 0
  0.875000   0.875000 0
  0.750000   0.125000 0
  1.000000   1.000000 0
  0.875000   0.250000 0
  0.625000   0.875000 0
  1.000000   0.750000 0
  0.875000   0.000000 0
  1.000000   0.250000 0
  0.625000   0.375000 0
  0.875000   0.500000 0
  0.625000   0.625000 0
  1.000000   0.500000 0
  0.750000   0.500000 0
  0.750000   1.000000 0
  1.000000   0.125000 0
  0.625000   0.250000 0
  0.750000   0.750000 0
  0.625000   0.000000 0
  0.125000   0.375000 0
  0.000000   0.500000 0
  0.125000   0.625000 0
  0.625000   1.000000 0
  1.000000   0.875000 0
  0.875000   0.125000 0
  0.500000   0.250000 0
  0.625000   0.500000 0
  0.250000   0.625000 0
  0.000000   0.625000 0
  0.375000   0.500000 0
  0.375000   0.000000 0
  0.000000   0.125000 0
  0.125000   0.875000 0
  0.875000   1.000000 0
  0.750000   0.250000 0
  0.375000   0.375000 0
  0.250000   0.375000 0
  0.625000   0.750000 0
  0.125000   0.125000 0
  0.500000   0.000000 0
  0.250000   0.875000 0
  0.125000   0.500000 0
  0.500000   0.375000 0
  0.125000   0.000000 0
  0.250000   0.750000 0
  0.250000   0.500000 0
  0.000000   0.875000 0
  0.875000   0.625000 0
  0.500000   0.750000 0
  0.750000   0.625000 0
  0.250000   0.000000 0
  0.375000   0.750000 0
  0.750000   0.875000 0
  0.625000   0.125000 0
  0.250000   0.250000 0
  0.375000   1.000000 0
  0.375000   0.250000 0
  0.000000   0.375000 0
  0.500000   1.000000 0
  0.875000   0.750000 0
  0.750000   0.000000 0
  0.375000   0.125000 0
  0.500000   0.875000 0
  0.000000   0.000000 0
  0.125000   0.750000 0
  0.500000   0.625000 0
  0.125000   0.250000 0
  0.500000   0.125000 0
  0.250000   1.000000 0
  0.250000   0.125000 0
  0.000000   1.000000 0
  0.375000   0.875000 0
  0.000000   0.750000 0
  0.375000   0.625000 0
  0.000000   0.250000 0
  0.125000   1.000000 0
  1.000000   0.375000 0
  0.500000   0.500000 0
  0.875000   0.375000 0
CELLS 64 320
4 56 71 58 63
4 27 58 69 63
4 41 69 32 63
4 76 33 68 40
4 27 44 58 37
4 79 31 44 37
4 56 38 68 21
4 56 58 38 37
4 52 32 71 63
4 47 38 31 37
4 76 68 59 21
4 22 59 43 21
4 65 45 33 40
4 47 43 38 21
4 52 71 45 40
4 56 68 71 40
4 74 30 66 23
4 46 66 29 23
4 22 43 30 23
4 72 48 77 34
4 46 53 42 73
4 50 64 53 73
4 70 42 57 73
4 74 66 48 34
4 46 42 66 34
4 47 29 43 23
4 70 77 42 34
4 60 57 64 73
4 79 67 31 75
4 47 31 29 75
4 50 53 67 75
4 46 29 53 75
4 10 78 6 80
4 36 6 1 80
4 15 1 12 80
4 36 4 6 26
4 14 12 78 80
4 2 17 9 26
4 36 18 4 55
4 15 28 1 11
4 62 4 20 55
4 10 6 17 26
4 27 18 44 11
4 62 9 4 26
4 27 69 18 55
4 36 1 18 11
4 41 20 69 55
4 79 44 28 11
4 16 24 54 7
4 19 54 39 7
4 50 39 64 7
4 8 25 61 3
4 60 64 24 7
4 79 28 67 13
4 19 51 61 49
4 8 61 0 49
4 15 51 28 13
4 19 39 51 13
4 50 67 39 13
4 19 61 54 3
4 14 0 12 49
4 5 35 25 3
4 15 12 51 49
4 16 54 35 3
CELL_TYPES 64
8
8
8
8
8
8
8
8
8
8
8
8
8
8
8
8
8
8
8
8
8
8
8
8
8
8
8
8
8
8
8
8
8
8
8
8
8
8
8
8
8
8
8
8
8
8
8
8
8
8
8
8
8
8
8
8
8
8
8
8
8
8
8
8
CELL_DATA 64
VECTORS vector_value float
0.212305 -0.214368 0
7.24445 -4.50914 0
0.0359598 -0.0605126 0
2.01221e-05 -0.00257334 0
0.000212165 -0.0142118 0
0.0734916 -0.0868512 0
0.0354755 -0.0411498 0
4.10497 -7.32701 0
3.83672e-07 -1.36284e-06 0
2.56855 -5.84271 0
0.0133923 -0.024772 0
0.188646 -0.379467 0
-0.00780469 -0.0155759 0
1.18111 -1.19885 0
-0.05117 -0.0797199 0
0.00320966 -0.0214343 0
4.16783e-06 -0.000907788 0
-0.0035002 -7.15382 0
-0.202889 -0.286144 0
0.448704 -0.333787 0
-2.92611 -0.223137 0
-3.64426 -0.0490478 0
-1.72974 -2.20534 0
0.0508383 -0.0311225 0
-2.86849 -5.07317 0
2.34805 -6.74114 0
0.79135 -0.96715 0
-0.0127671 -0.000648779 0
-0.316628 -0.34418 0
0.174719 -0.140578 0
-1.42966e-05 -0.000129798 0
1.24051e-05 -0.00224749 0
-0.0241034 -0.147701 0
-0.0278361 -0.370862 0
-0.144665 -0.255773 0
-0.308338 -0.122384 0
-0.150815 -0.238259 0
-5.35872e-08 -0.00246925 0
-0.50651 -0.0279177 0
0.0311793 0.00197845 0
-0.0019536 -0.00257141 0
-0.0686178 -0.137776 0
0.0716732 -0.0741797 0
-1.58869e-05 -0.00672325 0
2.16811 -2.96441 0
6.69492e-05 -0.000110053 0
1.43056 -7.83243 0
0.00801893 -6.57792e-05 0
-1.60292 -0.290817 0
-0.40412 -0.0414419 0
-2.00423 -1.92159 0
-0.138577 -0.6362 0
-0.792345 -2.74603 0
0.000253027 -0.00027587 0
-0.0582255 -0.0638 0
0.0162494 -0.427393 0
-0.000420454 -0.000478465 0
-0.00517054 0.000978567 0
-0.215641 -0.352683 0
-0.191089 -0.0242892 0
0.0175331 -0.486099 0
-0.150435 -1.05023 0
0.000204703 -0.00110152 0
-0.764207 -0.405996 0
