# vtk DataFile Version 2.0
Unstructured Grid by M++
ASCII
DATASET UNSTRUCTURED_GRID
POINTS 81 float
  1.000000   0.625000 0
  0.750000   0.375000 0
  1.000000   0.000000 0
  0.875000   0.875000 0
  0.750000   0.125000 0
  1.000000   1.000000 0
  0.875000   0.250000 0
  0.625000   0.875000 0
  1.000000   0.750000 0
  0.875000   0.000000 0
  1.000000   0.250000 0
  0.625000   0.375000 0
  0.875000   0.500000 0
  0.625000   0.625000 0
  1.000000   0.500000 0
  0.750000   0.500000 0
  0.750000   1.000000 0
  1.000000   0.125000 0
  0.625000   0.250000 0
  0.750000   0.750000 0
  0.625000   0.000000 0
  0.125000   0.375000 0
  0.000000   0.500000 0
  0.125000   0.625000 0
  0.625000   1.000000 0
  1.000000   0.875000 0
  0.875000   0.125000 0
  0.500000   0.250000 0
  0.625000   0.500000 0
  0.250000   0.625000 0
  0.000000   0.625000 0
  0.375000   0.500000 0
  0.375000   0.000000 0
  0.000000   0.125000 0
  0.125000   0.875000 0
  0.875000   1.000000 0
  0.750000   0.250000 0
  0.375000   0.375000 0
  0.250000   0.375000 0
  0.625000   0.750000 0
  0.125000   0.125000 0
  0.500000   0.000000 0
  0.250000   0.875000 0
  0.125000   0.500000 0
  0.500000   0.375000 0
  0.125000   0.000000 0
  0.250000   0.750000 0
  0.250000   0.500000 0
  0.000000   0.875000 0
  0.875000   0.625000 0
  0.500000   0.750000 0
  0.750000   0.625000 0
  0.250000   0.000000 0
  0.375000   0.750000 0
  0.750000   0.875000 0
  0.625000   0.125000 0
  0.250000   0.250000 0
  0.375000   1.000000 0
  0.375000   0.250000 0
  0.000000   0.375000 0
  0.500000   1.000000 0
  0.875000   0.750000 0
  0.750000   0.000000 0
  0.375000   0.125000 0
  0.500000   0.875000 0
  0.000000   0.000000 0
  0.125000   0.750000 0
  0.500000   0.625000 0
  0.125000   0.250000 0
  0.500000   0.125000 0
  0.250000   1.000000 0
  0.250000   0.125000 0
  0.000000   1.000000 0
  0.375000   0.875000 0
  0.000000   0.750000 0
  0.375000   0.625000 0
  0.000000   0.250000 0
  0.125000   1.000000 0
  1.000000   0.375000 0
  0.500000   0.500000 0
  0.875000   0.375000 0
CELLS 64 320
4 56 71 58 63
4 27 58 69 63
4 41 69 32 63
4 76 33 68 40
4 27 44 58 37
4 79 31 44 37
4 56 38 68 21
4 56 58 38 37
4 52 32 71 63
4 47 38 31 37
4 76 68 59 21
4 22 59 43 21
4 65 45 33 40
4 47 43 38 21
4 52 71 45 40
4 56 68 71 40
4 74 30 66 23
4 46 66 29 23
4 22 43 30 23
4 72 48 77 34
4 46 53 42 73
4 50 64 53 73
4 70 42 57 73
4 74 66 48 34
4 46 42 66 34
4 47 29 43 23
4 70 77 42 34
4 60 57 64 73
4 79 67 31 75
4 47 31 29 75
4 50 53 67 75
4 46 29 53 75
4 10 78 6 80
4 36 6 1 80
4 15 1 12 80
4 36 4 6 26
4 14 12 78 80
4 2 17 9 26
4 36 18 4 55
4 15 28 1 11
4 62 4 20 55
4 10 6 17 26
4 27 18 44 11
4 62 9 4 26
4 27 69 18 55
4 36 1 18 11
4 41 20 69 55
4 79 44 28 11
4 16 24 54 7
4 19 54 39 7
4 50 39 64 7
4 8 25 61 3
4 60 64 24 7
4 79 28 67 13
4 19 51 61 49
4 8 61 0 49
4 15 51 28 13
4 19 39 51 13
4 50 67 39 13
4 19 61 54 3
4 14 0 12 49
4 5 35 25 3
4 15 12 51 49
4 16 54 35 3
CELL_TYPES 64
8
8
8
8
8
8
8
8
8
8
8
8
8
8
8
8
8
8
8
8
8
8
8
8
8
8
8
8
8
8
8
8
8
8
8
8
8
8
8
8
8
8
8
8
8
8
8
8
8
8
8
8
8
8
8
8
8
8
8
8
8
8
8
8
CELL_DATA 64
VECTORS vector_value float
-0.0096746 -0.837534 0
0.433294 -2.73078 0
-0.27687 -2.74536 0
-0.103165 -1.31793 0
0.56881 -1.74828 0
-1.61738 -2.24937 0
-0.810591 -0.773529 0
-0.0747992 -3.3621 0
-0.176492 -0.890293 0
-1.39007 -3.63649 0
-0.358409 -0.71857 0
-0.0943561 -0.151506 0
0.188461 -0.876085 0
-0.582132 -0.644325 0
0.250367 -1.91507 0
-0.438399 -1.33733 0
0.0140182 -0.0907041 0
0.154983 -0.468427 0
-0.000417084 -0.0750479 0
0.39377 -0.494115 0
0.173026 -0.330657 0
0.483117 -1.91446 0
1.30583 -0.655933 0
0.0534663 -0.159225 0
0.254268 -0.745076 0
0.0169742 -0.260316 0
0.862635 -1.03925 0
0.942392 -1.66294 0
-1.35269 -1.30773 0
-0.399028 -2.2637 0
-0.780943 -1.38368 0
-0.194505 -0.938897 0
-0.158107 -0.507205 0
-0.0528548 -0.237579 0
-0.0719715 -0.227763 0
-0.201621 -0.488962 0
0.00875705 -0.589563 0
-0.0119525 -0.137652 0
-0.0125056 -0.169415 0
-0.133299 -0.183817 0
0.0452685 -0.217137 0
-0.0445334 -0.173864 0
0.00915235 -0.594853 0
0.0282622 -0.545689 0
0.146623 -0.944185 0
-0.032981 -0.0578838 0
-0.0764849 -0.672713 0
-0.0396079 -0.317172 0
-0.643142 -0.594522 0
-0.189686 -0.49919 0
0.317162 -2.90824 0
-0.149155 -0.683737 0
-0.208279 -1.69643 0
-2.28268 -2.30215 0
-0.362484 -0.698074 0
-0.0916438 -0.299347 0
-0.674671 -0.882524 0
-0.0595294 -1.49215 0
-0.141799 -2.62873 0
-0.24778 -0.759414 0
0.135674 -0.365992 0
-0.122205 -1.15307 0
0.118533 -0.542541 0
-0.294876 -0.703735 0
