# vtk DataFile Version 2.0
Unstructured Grid by M++
ASCII
DATASET UNSTRUCTURED_GRID
POINTS 81 float
  1.000000   0.625000 0
  0.750000   0.375000 0
  1.000000   0.000000 0
  0.875000   0.875000 0
  0.750000   0.125000 0
  1.000000   1.000000 0
  0.875000   0.250000 0
  0.625000   0.875000 0
  1.000000   0.750000 0
  0.875000   0.000000 0
  1.000000   0.250000 0
  0.625000   0.375000 0
  0.875000   0.500000 0
  0.625000   0.625000 0
  1.000000   0.500000 0
  0.750000   0.500000 0
  0.750000   1.000000 0
  1.000000   0.125000 0
  0.625000   0.250000 0
  0.750000   0.750000 0
  0.625000   0.000000 0
  0.125000   0.375000 0
  0.000000   0.500000 0
  0.125000   0.625000 0
  0.625000   1.000000 0
  1.000000   0.875000 0
  0.875000   0.125000 0
  0.500000   0.250000 0
  0.625000   0.500000 0
  0.250000   0.625000 0
  0.000000   0.625000 0
  0.375000   0.500000 0
  0.375000   0.000000 0
  0.000000   0.125000 0
  0.125000   0.875000 0
  0.875000   1.000000 0
  0.750000   0.250000 0
  0.375000   0.375000 0
  0.250000   0.375000 0
  0.625000   0.750000 0
  0.125000   0.125000 0
  0.500000   0.000000 0
  0.250000   0.875000 0
  0.125000   0.500000 0
  0.500000   0.375000 0
  0.125000   0.000000 0
  0.250000   0.750000 0
  0.250000   0.500000 0
  0.000000   0.875000 0
  0.875000   0.625000 0
  0.500000   0.750000 0
  0.750000   0.625000 0
  0.250000   0.000000 0
  0.375000   0.750000 0
  0.750000   0.875000 0
  0.625000   0.125000 0
  0.250000   0.250000 0
  0.375000   1.000000 0
  0.375000   0.250000 0
  0.000000   0.375000 0
  0.500000   1.000000 0
  0.875000   0.750000 0
  0.750000   0.000000 0
  0.375000   0.125000 0
  0.500000   0.875000 0
  0.000000   0.000000 0
  0.125000   0.750000 0
  0.500000   0.625000 0
  0.125000   0.250000 0
  0.500000   0.125000 0
  0.250000   1.000000 0
  0.250000   0.125000 0
  0.000000   1.000000 0
  0.375000   0.875000 0
  0.000000   0.750000 0
  0.375000   0.625000 0
  0.000000   0.250000 0
  0.125000   1.000000 0
  1.000000   0.375000 0
  0.500000   0.500000 0
  0.875000   0.375000 0
CELLS 64 320
4 56 71 58 63
4 27 58 69 63
4 41 69 32 63
4 76 33 68 40
4 27 44 58 37
4 79 31 44 37
4 56 38 68 21
4 56 58 38 37
4 52 32 71 63
4 47 38 31 37
4 76 68 59 21
4 22 59 43 21
4 65 45 33 40
4 47 43 38 21
4 52 71 45 40
4 56 68 71 40
4 74 30 66 23
4 46 66 29 23
4 22 43 30 23
4 72 48 77 34
4 46 53 42 73
4 50 64 53 73
4 70 42 57 73
4 74 66 48 34
4 46 42 66 34
4 47 29 43 23
4 70 77 42 34
4 60 57 64 73
4 79 67 31 75
4 47 31 29 75
4 50 53 67 75
4 46 29 53 75
4 10 78 6 80
4 36 6 1 80
4 15 1 12 80
4 36 4 6 26
4 14 12 78 80
4 2 17 9 26
4 36 18 4 55
4 15 28 1 11
4 62 4 20 55
4 10 6 17 26
4 27 18 44 11
4 62 9 4 26
4 27 69 18 55
4 36 1 18 11
4 41 20 69 55
4 79 44 28 11
4 16 24 54 7
4 19 54 39 7
4 50 39 64 7
4 8 25 61 3
4 60 64 24 7
4 79 28 67 13
4 19 51 61 49
4 8 61 0 49
4 15 51 28 13
4 19 39 51 13
4 50 67 39 13
4 19 61 54 3
4 14 0 12 49
4 5 35 25 3
4 15 12 51 49
4 16 54 35 3
CELL_TYPES 64
8
8
8
8
8
8
8
8
8
8
8
8
8
8
8
8
8
8
8
8
8
8
8
8
8
8
8
8
8
8
8
8
8
8
8
8
8
8
8
8
8
8
8
8
8
8
8
8
8
8
8
8
8
8
8
8
8
8
8
8
8
8
8
8
CELL_DATA 64
VECTORS vector_value float
-0.231717 -5.61122 0
-0.173883 -0.710652 0
0.123798 -1.00012 0
0.0365841 -0.102275 0
-1.52653 -1.59863 0
-0.788599 -1.40076 0
0.125147 -0.108515 0
-0.596025 -4.29245 0
0.0493969 -5.33134 0
-0.731058 -2.76035 0
0.0477625 -0.180296 0
0.0865371 -0.335405 0
0.00494828 -0.0669279 0
0.221166 -0.144609 0
0.00748361 -0.0914196 0
0.0785823 -0.079885 0
0.155172 -0.789653 0
0.199867 -0.609984 0
0.145377 -0.591128 0
0.085735 -0.689351 0
0.220426 -0.626541 0
0.123549 -1.87068 0
0.689149 -0.36876 0
-0.0947559 -1.02331 0
0.0140604 -0.31874 0
0.433276 -0.403867 0
0.309026 -1.27447 0
0.509145 -1.81655 0
-0.905963 -2.89675 0
0.147251 -0.589776 0
0.169367 -2.13447 0
0.136792 -0.202704 0
0.260301 -0.963743 0
0.0176652 -0.246726 0
0.131128 -1.0056 0
-0.358072 -0.411342 0
0.0448353 -0.385951 0
-0.0115919 -0.254798 0
-0.0150421 -0.224663 0
-0.182646 -0.108107 0
-0.171612 -0.578304 0
-0.378798 -0.776666 0
-0.287154 -0.438405 0
-0.212386 -0.589195 0
-0.0178078 -0.0832992 0
-0.058856 -0.171243 0
0.0133507 -0.0878955 0
-1.23037 -1.85922 0
0.0437688 -1.11122 0
0.161018 -0.599217 0
0.107795 -1.17686 0
0.170817 -1.18414 0
-0.0129273 -0.888063 0
-0.40934 -0.704792 0
-0.0984396 -0.40059 0
-0.236429 -1.74857 0
-0.964482 -1.12991 0
-0.207605 -0.839433 0
-0.195082 -1.2746 0
0.479726 -1.20051 0
-0.177104 -0.679411 0
-0.0465639 -0.908632 0
-0.853917 -1.00436 0
-0.0917074 -0.942951 0
