# vtk DataFile Version 2.0
Unstructured Grid by M++
ASCII
DATASET UNSTRUCTURED_GRID
POINTS 81 float
  1.000000   0.625000 0
  0.750000   0.375000 0
  1.000000   0.000000 0
  0.875000   0.875000 0
  0.750000   0.125000 0
  1.000000   1.000000 0
  0.875000   0.250000 0
  0.625000   0.875000 0
  1.000000   0.750000 0
  0.875000   0.000000 0
  1.000000   0.250000 0
  0.625000   0.375000 0
  0.875000   0.500000 0
  0.625000   0.625000 0
  1.000000   0.500000 0
  0.750000   0.500000 0
  0.750000   1.000000 0
  1.000000   0.125000 0
  0.625000   0.250000 0
  0.750000   0.750000 0
  0.625000   0.000000 0
  0.125000   0.375000 0
  0.000000   0.500000 0
  0.125000   0.625000 0
  0.625000   1.000000 0
  1.000000   0.875000 0
  0.875000   0.125000 0
  0.500000   0.250000 0
  0.625000   0.500000 0
  0.250000   0.625000 0
  0.000000   0.625000 0
  0.375000   0.500000 0
  0.375000   0.000000 0
  0.000000   0.125000 0
  0.125000   0.875000 0
  0.875000   1.000000 0
  0.750000   0.250000 0
  0.375000   0.375000 0
  0.250000   0.375000 0
  0.625000   0.750000 0
  0.125000   0.125000 0
  0.500000   0.000000 0
  0.250000   0.875000 0
  0.125000   0.500000 0
  0.500000   0.375000 0
  0.125000   0.000000 0
  0.250000   0.750000 0
  0.250000   0.500000 0
  0.000000   0.875000 0
  0.875000   0.625000 0
  0.500000   0.750000 0
  0.750000   0.625000 0
  0.250000   0.000000 0
  0.375000   0.750000 0
  0.750000   0.875000 0
  0.625000   0.125000 0
  0.250000   0.250000 0
  0.375000   1.000000 0
  0.375000   0.250000 0
  0.000000   0.375000 0
  0.500000   1.000000 0
  0.875000   0.750000 0
  0.750000   0.000000 0
  0.375000   0.125000 0
  0.500000   0.875000 0
  0.000000   0.000000 0
  0.125000   0.750000 0
  0.500000   0.625000 0
  0.125000   0.250000 0
  0.500000   0.125000 0
  0.250000   1.000000 0
  0.250000   0.125000 0
  0.000000   1.000000 0
  0.375000   0.875000 0
  0.000000   0.750000 0
  0.375000   0.625000 0
  0.000000   0.250000 0
  0.125000   1.000000 0
  1.000000   0.375000 0
  0.500000   0.500000 0
  0.875000   0.375000 0
CELLS 64 320
4 56 71 58 63
4 27 58 69 63
4 41 69 32 63
4 76 33 68 40
4 27 44 58 37
4 79 31 44 37
4 56 38 68 21
4 56 58 38 37
4 52 32 71 63
4 47 38 31 37
4 76 68 59 21
4 22 59 43 21
4 65 45 33 40
4 47 43 38 21
4 52 71 45 40
4 56 68 71 40
4 74 30 66 23
4 46 66 29 23
4 22 43 30 23
4 72 48 77 34
4 46 53 42 73
4 50 64 53 73
4 70 42 57 73
4 74 66 48 34
4 46 42 66 34
4 47 29 43 23
4 70 77 42 34
4 60 57 64 73
4 79 67 31 75
4 47 31 29 75
4 50 53 67 75
4 46 29 53 75
4 10 78 6 80
4 36 6 1 80
4 15 1 12 80
4 36 4 6 26
4 14 12 78 80
4 2 17 9 26
4 36 18 4 55
4 15 28 1 11
4 62 4 20 55
4 10 6 17 26
4 27 18 44 11
4 62 9 4 26
4 27 69 18 55
4 36 1 18 11
4 41 20 69 55
4 79 44 28 11
4 16 24 54 7
4 19 54 39 7
4 50 39 64 7
4 8 25 61 3
4 60 64 24 7
4 79 28 67 13
4 19 51 61 49
4 8 61 0 49
4 15 51 28 13
4 19 39 51 13
4 50 67 39 13
4 19 61 54 3
4 14 0 12 49
4 5 35 25 3
4 15 12 51 49
4 16 54 35 3
CELL_TYPES 64
8
8
8
8
8
8
8
8
8
8
8
8
8
8
8
8
8
8
8
8
8
8
8
8
8
8
8
8
8
8
8
8
8
8
8
8
8
8
8
8
8
8
8
8
8
8
8
8
8
8
8
8
8
8
8
8
8
8
8
8
8
8
8
8
CELL_DATA 64
VECTORS vector_value float
-0.517132 -0.457939 0
-0.688709 -1.09276 0
-0.0846728 -0.521215 0
-0.017725 -0.574158 0
-0.590824 -0.878721 0
0.00630452 -0.432841 0
0.00167706 -0.56754 0
-0.179503 -0.295945 0
-0.408887 -0.790389 0
-0.0543318 -0.234176 0
0.0231462 -0.585114 0
0.0615597 -0.730549 0
-0.10789 -0.789662 0
-0.0138479 -0.397003 0
-0.272891 -1.11122 0
-0.219204 -0.887838 0
0.0347541 -0.503231 0
0.0443017 -0.52993 0
-0.110074 -0.705884 0
0.0917562 -0.871543 0
0.1975 -0.666183 0
0.277592 -0.546814 0
0.909813 -0.84158 0
0.11166 -0.744755 0
0.150175 -0.337716 0
-0.0750103 -0.323786 0
0.494047 -0.633382 0
1.27305 -0.769717 0
0.284324 -0.620099 0
0.066719 -0.341953 0
0.0569509 -0.388781 0
0.1216 -0.704135 0
-0.0446433 -0.620903 0
-0.0943602 -0.5037 0
-1.5892 -1.24497 0
-0.0943727 -0.518002 0
-0.32535 -0.970729 0
0.00457658 -0.585457 0
0.301653 -2.04346 0
-2.61931 -2.98414 0
0.1587 -3.06379 0
-0.00966869 -0.566872 0
-1.35714 -2.77924 0
-0.0219814 -0.309252 0
0.299847 -1.85897 0
-0.29849 -1.76884 0
0.0533651 -0.829015 0
-0.403228 -1.00559 0
1.45196 -2.20813 0
1.29782 -1.84512 0
0.327255 -0.280526 0
0.531461 -1.46979 0
1.90296 -0.799882 0
0.0161887 -0.433625 0
0.630322 -2.43483 0
0.355755 -2.64848 0
-0.431642 -1.01519 0
0.0923621 -0.571134 0
0.0426515 -0.219477 0
1.62226 -2.1091 0
-0.600215 -2.18623 0
-0.118424 -0.754252 0
-1.25688 -2.37324 0
0.0406344 -1.12151 0
