# vtk DataFile Version 2.0
Unstructured Grid by M++
ASCII
DATASET UNSTRUCTURED_GRID
POINTS 81 float
  1.000000   0.625000 0
  0.750000   0.375000 0
  1.000000   0.000000 0
  0.875000   0.875000 0
  0.750000   0.125000 0
  1.000000   1.000000 0
  0.875000   0.250000 0
  0.625000   0.875000 0
  1.000000   0.750000 0
  0.875000   0.000000 0
  1.000000   0.250000 0
  0.625000   0.375000 0
  0.875000   0.500000 0
  0.625000   0.625000 0
  1.000000   0.500000 0
  0.750000   0.500000 0
  0.750000   1.000000 0
  1.000000   0.125000 0
  0.625000   0.250000 0
  0.750000   0.750000 0
  0.625000   0.000000 0
  0.125000   0.375000 0
  0.000000   0.500000 0
  0.125000   0.625000 0
  0.625000   1.000000 0
  1.000000   0.875000 0
  0.875000   0.125000 0
  0.500000   0.250000 0
  0.625000   0.500000 0
  0.250000   0.625000 0
  0.000000   0.625000 0
  0.375000   0.500000 0
  0.375000   0.000000 0
  0.000000   0.125000 0
  0.125000   0.875000 0
  0.875000   1.000000 0
  0.750000   0.250000 0
  0.375000   0.375000 0
  0.250000   0.375000 0
  0.625000   0.750000 0
  0.125000   0.125000 0
  0.500000   0.000000 0
  0.250000   0.875000 0
  0.125000   0.500000 0
  0.500000   0.375000 0
  0.125000   0.000000 0
  0.250000   0.750000 0
  0.250000   0.500000 0
  0.000000   0.875000 0
  0.875000   0.625000 0
  0.500000   0.750000 0
  0.750000   0.625000 0
  0.250000   0.000000 0
  0.375000   0.750000 0
  0.750000   0.875000 0
  0.625000   0.125000 0
  0.250000   0.250000 0
  0.375000   1.000000 0
  0.375000   0.250000 0
  0.000000   0.375000 0
  0.500000   1.000000 0
  0.875000   0.750000 0
  0.750000   0.000000 0
  0.375000   0.125000 0
  0.500000   0.875000 0
  0.000000   0.000000 0
  0.125000   0.750000 0
  0.500000   0.625000 0
  0.125000   0.250000 0
  0.500000   0.125000 0
  0.250000   1.000000 0
  0.250000   0.125000 0
  0.000000   1.000000 0
  0.375000   0.875000 0
  0.000000   0.750000 0
  0.375000   0.625000 0
  0.000000   0.250000 0
  0.125000   1.000000 0
  1.000000   0.375000 0
  0.500000   0.500000 0
  0.875000   0.375000 0
CELLS 64 320
4 56 71 58 63
4 27 58 69 63
4 41 69 32 63
4 76 33 68 40
4 27 44 58 37
4 79 31 44 37
4 56 38 68 21
4 56 58 38 37
4 52 32 71 63
4 47 38 31 37
4 76 68 59 21
4 22 59 43 21
4 65 45 33 40
4 47 43 38 21
4 52 71 45 40
4 56 68 71 40
4 74 30 66 23
4 46 66 29 23
4 22 43 30 23
4 72 48 77 34
4 46 53 42 73
4 50 64 53 73
4 70 42 57 73
4 74 66 48 34
4 46 42 66 34
4 47 29 43 23
4 70 77 42 34
4 60 57 64 73
4 79 67 31 75
4 47 31 29 75
4 50 53 67 75
4 46 29 53 75
4 10 78 6 80
4 36 6 1 80
4 15 1 12 80
4 36 4 6 26
4 14 12 78 80
4 2 17 9 26
4 36 18 4 55
4 15 28 1 11
4 62 4 20 55
4 10 6 17 26
4 27 18 44 11
4 62 9 4 26
4 27 69 18 55
4 36 1 18 11
4 41 20 69 55
4 79 44 28 11
4 16 24 54 7
4 19 54 39 7
4 50 39 64 7
4 8 25 61 3
4 60 64 24 7
4 79 28 67 13
4 19 51 61 49
4 8 61 0 49
4 15 51 28 13
4 19 39 51 13
4 50 67 39 13
4 19 61 54 3
4 14 0 12 49
4 5 35 25 3
4 15 12 51 49
4 16 54 35 3
CELL_TYPES 64
8
8
8
8
8
8
8
8
8
8
8
8
8
8
8
8
8
8
8
8
8
8
8
8
8
8
8
8
8
8
8
8
8
8
8
8
8
8
8
8
8
8
8
8
8
8
8
8
8
8
8
8
8
8
8
8
8
8
8
8
8
8
8
8
CELL_DATA 64
VECTORS vector_value float
-0.0933148 -1.46753 0
-0.0517693 -1.25393 0
0.238615 -1.52339 0
0.054851 -1.79624 0
-1.19398 -1.41706 0
-0.32447 -0.756827 0
-0.0807214 -0.540715 0
-0.574549 -1.23557 0
0.101236 -1.33832 0
-0.264553 -0.840421 0
0.0538152 -2.32374 0
-0.14342 -2.20142 0
-0.0151247 -2.11267 0
-0.360164 -0.454536 0
0.000738748 -1.0018 0
-0.00561349 -1.67442 0
-0.117903 -1.90035 0
0.253291 -1.05778 0
-0.0238835 -2.00003 0
0.187872 -0.628176 0
0.198486 -0.209658 0
-0.0299182 -0.219996 0
-0.778795 -0.62237 0
-0.555064 -0.828702 0
-0.648013 -2.31393 0
0.0475855 -0.283267 0
-0.320554 -2.0581 0
0.0417634 -0.400403 0
-0.0725751 -1.21098 0
0.067268 -1.00272 0
-0.282394 -1.22737 0
0.0774591 -0.128399 0
0.0524581 -0.141338 0
0.0185429 -0.0419602 0
0.0104483 -0.130474 0
0.310786 -0.220232 0
-0.000169378 -0.0519542 0
0.129418 -0.460261 0
0.637565 -0.638261 0
-0.11011 -0.122069 0
0.0709174 -0.53071 0
0.0409322 -0.195305 0
-0.0640408 -2.23312 0
0.106942 -0.213755 0
0.0874128 -0.754081 0
0.0290518 -0.0664976 0
0.142957 -0.819086 0
-0.69905 -3.4423 0
-1.05555 -0.839525 0
-0.0994795 -0.17765 0
-0.330847 -2.91617 0
-0.151052 -0.600352 0
-0.454345 -1.83939 0
-0.281785 -2.54859 0
-0.591886 -0.900019 0
-0.107728 -0.253094 0
-0.83182 -0.6599 0
-0.189384 -0.225467 0
-0.262206 -2.30753 0
-0.143512 -0.73354 0
-0.0377858 -0.108633 0
-0.174373 -0.711151 0
-0.126624 -0.185878 0
-0.499736 -0.900888 0
