# vtk DataFile Version 2.0
Unstructured Grid by M++
ASCII
DATASET UNSTRUCTURED_GRID
POINTS 81 float
  1.000000   0.625000 0
  0.750000   0.375000 0
  1.000000   0.000000 0
  0.875000   0.875000 0
  0.750000   0.125000 0
  1.000000   1.000000 0
  0.875000   0.250000 0
  0.625000   0.875000 0
  1.000000   0.750000 0
  0.875000   0.000000 0
  1.000000   0.250000 0
  0.625000   0.375000 0
  0.875000   0.500000 0
  0.625000   0.625000 0
  1.000000   0.500000 0
  0.750000   0.500000 0
  0.750000   1.000000 0
  1.000000   0.125000 0
  0.625000   0.250000 0
  0.750000   0.750000 0
  0.625000   0.000000 0
  0.125000   0.375000 0
  0.000000   0.500000 0
  0.125000   0.625000 0
  0.625000   1.000000 0
  1.000000   0.875000 0
  0.875000   0.125000 0
  0.500000   0.250000 0
  0.625000   0.500000 0
  0.250000   0.625000 0
  0.000000   0.625000 0
  0.375000   0.500000 0
  0.375000   0.000000 0
  0.000000   0.125000 0
  0.125000   0.875000 0
  0.875000   1.000000 0
  0.750000   0.250000 0
  0.375000   0.375000 0
  0.250000   0.375000 0
  0.625000   0.750000 0
  0.125000   0.125000 0
  0.500000   0.000000 0
  0.250000   0.875000 0
  0.125000   0.500000 0
  0.500000   0.375000 0
  0.125000   0.000000 0
  0.250000   0.750000 0
  0.250000   0.500000 0
  0.000000   0.875000 0
  0.875000   0.625000 0
  0.500000   0.750000 0
  0.750000   0.625000 0
  0.250000   0.000000 0
  0.375000   0.750000 0
  0.750000   0.875000 0
  0.625000   0.125000 0
  0.250000   0.250000 0
  0.375000   1.000000 0
  0.375000   0.250000 0
  0.000000   0.375000 0
  0.500000   1.000000 0
  0.875000   0.750000 0
  0.750000   0.000000 0
  0.375000   0.125000 0
  0.500000   0.875000 0
  0.000000   0.000000 0
  0.125000   0.750000 0
  0.500000   0.625000 0
  0.125000   0.250000 0
  0.500000   0.125000 0
  0.250000   1.000000 0
  0.250000   0.125000 0
  0.000000   1.000000 0
  0.375000   0.875000 0
  0.000000   0.750000 0
  0.375000   0.625000 0
  0.000000   0.250000 0
  0.125000   1.000000 0
  1.000000   0.375000 0
  0.500000   0.500000 0
  0.875000   0.375000 0
CELLS 64 320
4 56 71 58 63
4 27 58 69 63
4 41 69 32 63
4 76 33 68 40
4 27 44 58 37
4 79 31 44 37
4 56 38 68 21
4 56 58 38 37
4 52 32 71 63
4 47 38 31 37
4 76 68 59 21
4 22 59 43 21
4 65 45 33 40
4 47 43 38 21
4 52 71 45 40
4 56 68 71 40
4 74 30 66 23
4 46 66 29 23
4 22 43 30 23
4 72 48 77 34
4 46 53 42 73
4 50 64 53 73
4 70 42 57 73
4 74 66 48 34
4 46 42 66 34
4 47 29 43 23
4 70 77 42 34
4 60 57 64 73
4 79 67 31 75
4 47 31 29 75
4 50 53 67 75
4 46 29 53 75
4 10 78 6 80
4 36 6 1 80
4 15 1 12 80
4 36 4 6 26
4 14 12 78 80
4 2 17 9 26
4 36 18 4 55
4 15 28 1 11
4 62 4 20 55
4 10 6 17 26
4 27 18 44 11
4 62 9 4 26
4 27 69 18 55
4 36 1 18 11
4 41 20 69 55
4 79 44 28 11
4 16 24 54 7
4 19 54 39 7
4 50 39 64 7
4 8 25 61 3
4 60 64 24 7
4 79 28 67 13
4 19 51 61 49
4 8 61 0 49
4 15 51 28 13
4 19 39 51 13
4 50 67 39 13
4 19 61 54 3
4 14 0 12 49
4 5 35 25 3
4 15 12 51 49
4 16 54 35 3
CELL_TYPES 64
8
8
8
8
8
8
8
8
8
8
8
8
8
8
8
8
8
8
8
8
8
8
8
8
8
8
8
8
8
8
8
8
8
8
8
8
8
8
8
8
8
8
8
8
8
8
8
8
8
8
8
8
8
8
8
8
8
8
8
8
8
8
8
8
CELL_DATA 64
VECTORS vector_value float
0.341284 -0.332646 0
1.62258 -1.12369 0
0.0944094 -0.328788 0
-0.282284 -0.345504 0
0.211141 -0.975254 0
-0.285075 -1.41168 0
-0.399851 -0.988546 0
0.119497 -1.86279 0
0.00892158 -0.040065 0
-0.203198 -1.9686 0
0.00291479 -0.0580176 0
0.0128835 -0.0937866 0
-0.103858 -0.813572 0
0.180691 -0.457455 0
-0.0201108 -0.464757 0
-0.322796 -0.997162 0
0.103979 -1.00102 0
0.643959 -1.0995 0
0.364481 -0.616901 0
-0.0360908 -1.32191 0
0.16601 -1.14984 0
-0.114152 -0.259412 0
-0.662039 -1.00723 0
0.0138788 -1.05101 0
0.129149 -1.4975 0
0.606507 -0.464201 0
-0.366852 -1.23372 0
-0.226502 -0.2254 0
0.487947 -1.3684 0
0.735005 -1.28046 0
0.242595 -0.889486 0
0.697645 -1.15256 0
-0.00550793 -0.0595914 0
-0.0776994 -0.180108 0
-0.195364 -0.371627 0
-0.018714 -0.060983 0
-0.0390907 -0.0893849 0
0.00663437 -0.0684533 0
-0.52285 -1.12985 0
0.353159 -2.17228 0
-0.0280401 -0.923971 0
0.00108993 -0.0543388 0
0.00623778 -1.34818 0
-0.0016418 -0.020489 0
0.024399 -3.95583 0
-0.49471 -2.52752 0
0.274821 -5.3399 0
0.107941 -1.43519 0
1.0151 -0.940458 0
-0.721056 -1.03073 0
-0.0631295 -0.0845842 0
0.050453 -0.0779234 0
0.516081 -0.549142 0
-0.0998189 -2.14558 0
-0.74715 -1.87105 0
0.00320964 -0.267341 0
-1.21856 -1.45184 0
-0.336787 -1.01645 0
-0.537863 -0.702596 0
-0.304479 -2.849 0
-0.014455 -0.15387 0
-0.467001 -0.697775 0
-0.211694 -0.518748 0
0.135167 -2.02436 0
