# vtk DataFile Version 2.0
Unstructured Grid by M++
ASCII
DATASET UNSTRUCTURED_GRID
POINTS 81 float
  1.000000   0.625000 0
  0.750000   0.375000 0
  1.000000   0.000000 0
  0.875000   0.875000 0
  0.750000   0.125000 0
  1.000000   1.000000 0
  0.875000   0.250000 0
  0.625000   0.875000 0
  1.000000   0.750000 0
  0.875000   0.000000 0
  1.000000   0.250000 0
  0.625000   0.375000 0
  0.875000   0.500000 0
  0.625000   0.625000 0
  1.000000   0.500000 0
  0.750000   0.500000 0
  0.750000   1.000000 0
  1.000000   0.125000 0
  0.625000   0.250000 0
  0.750000   0.750000 0
  0.625000   0.000000 0
  0.125000   0.375000 0
  0.000000   0.500000 0
  0.125000   0.625000 0
  0.625000   1.000000 0
  1.000000   0.875000 0
  0.875000   0.125000 0
  0.500000   0.250000 0
  0.625000   0.500000 0
  0.250000   0.625000 0
  0.000000   0.625000 0
  0.375000   0.500000 0
  0.375000   0.000000 0
  0.000000   0.125000 0
  0.125000   0.875000 0
  0.875000   1.000000 0
  0.750000   0.250000 0
  0.375000   0.375000 0
  0.250000   0.375000 0
  0.625000   0.750000 0
  0.125000   0.125000 0
  0.500000   0.000000 0
  0.250000   0.875000 0
  0.125000   0.500000 0
  0.500000   0.375000 0
  0.125000   0.000000 0
  0.250000   0.750000 0
  0.250000   0.500000 0
  0.000000   0.875000 0
  0.875000   0.625000 0
  0.500000   0.750000 0
  0.750000   0.625000 0
  0.250000   0.000000 0
  0.375000   0.750000 0
  0.750000   0.875000 0
  0.625000   0.125000 0
  0.250000   0.250000 0
  0.375000   1.000000 0
  0.375000   0.250000 0
  0.000000   0.375000 0
  0.500000   1.000000 0
  0.875000   0.750000 0
  0.750000   0.000000 0
  0.375000   0.125000 0
  0.500000   0.875000 0
  0.000000   0.000000 0
  0.125000   0.750000 0
  0.500000   0.625000 0
  0.125000   0.250000 0
  0.500000   0.125000 0
  0.250000   1.000000 0
  0.250000   0.125000 0
  0.000000   1.000000 0
  0.375000   0.875000 0
  0.000000   0.750000 0
  0.375000   0.625000 0
  0.000000   0.250000 0
  0.125000   1.000000 0
  1.000000   0.375000 0
  0.500000   0.500000 0
  0.875000   0.375000 0
CELLS 64 320
4 56 71 58 63
4 27 58 69 63
4 41 69 32 63
4 76 33 68 40
4 27 44 58 37
4 79 31 44 37
4 56 38 68 21
4 56 58 38 37
4 52 32 71 63
4 47 38 31 37
4 76 68 59 21
4 22 59 43 21
4 65 45 33 40
4 47 43 38 21
4 52 71 45 40
4 56 68 71 40
4 74 30 66 23
4 46 66 29 23
4 22 43 30 23
4 72 48 77 34
4 46 53 42 73
4 50 64 53 73
4 70 42 57 73
4 74 66 48 34
4 46 42 66 34
4 47 29 43 23
4 70 77 42 34
4 60 57 64 73
4 79 67 31 75
4 47 31 29 75
4 50 53 67 75
4 46 29 53 75
4 10 78 6 80
4 36 6 1 80
4 15 1 12 80
4 36 4 6 26
4 14 12 78 80
4 2 17 9 26
4 36 18 4 55
4 15 28 1 11
4 62 4 20 55
4 10 6 17 26
4 27 18 44 11
4 62 9 4 26
4 27 69 18 55
4 36 1 18 11
4 41 20 69 55
4 79 44 28 11
4 16 24 54 7
4 19 54 39 7
4 50 39 64 7
4 8 25 61 3
4 60 64 24 7
4 79 28 67 13
4 19 51 61 49
4 8 61 0 49
4 15 51 28 13
4 19 39 51 13
4 50 67 39 13
4 19 61 54 3
4 14 0 12 49
4 5 35 25 3
4 15 12 51 49
4 16 54 35 3
CELL_TYPES 64
8
8
8
8
8
8
8
8
8
8
8
8
8
8
8
8
8
8
8
8
8
8
8
8
8
8
8
8
8
8
8
8
8
8
8
8
8
8
8
8
8
8
8
8
8
8
8
8
8
8
8
8
8
8
8
8
8
8
8
8
8
8
8
8
CELL_DATA 64
VECTORS vector_value float
0.231689 -0.49656 0
-0.00869545 -1.16418 0
-0.338545 -0.85001 0
0.179304 -0.692529 0
1.03184 -1.31271 0
0.637964 -0.498339 0
0.0424583 -0.484461 0
0.128419 -0.374421 0
-0.192522 -1.27424 0
0.764241 -1.98167 0
-0.0499078 -0.842986 0
-0.0473231 -0.62401 0
0.143457 -0.20008 0
-0.132945 -0.617162 0
0.406217 -0.566605 0
0.180857 -0.338483 0
0.0374166 -0.39177 0
0.829366 -2.68591 0
-0.0983181 -0.450838 0
0.156694 -0.730268 0
-0.745232 -0.839431 0
-1.06082 -1.2517 0
-0.587623 -0.610082 0
0.102547 -0.923826 0
-0.296424 -2.33421 0
0.276515 -1.23572 0
-0.221724 -1.85602 0
-0.588092 -1.17611 0
1.03681 -0.786325 0
1.20202 -2.53595 0
0.267186 -0.651104 0
0.263116 -1.79486 0
-0.0572099 -0.200646 0
0.594071 -1.97484 0
-0.67875 -1.07687 0
0.529176 -2.98836 0
-0.141339 -0.353155 0
0.172953 -0.558536 0
0.431713 -1.44031 0
0.672109 -1.87455 0
0.0669094 -1.04879 0
0.045124 -0.193512 0
0.684934 -0.726028 0
0.16993 -3.02878 0
0.11961 -0.686062 0
0.89105 -2.08391 0
-0.0762981 -0.472957 0
1.25999 -0.974248 0
-0.697354 -1.09178 0
-0.051533 -0.260327 0
-0.484059 -0.743613 0
0.0727574 -1.40223 0
-0.886119 -0.881002 0
0.431326 -0.640891 0
0.00315493 -0.120174 0
0.0272245 -1.53823 0
0.277323 -0.677345 0
0.0326451 -0.19067 0
0.310481 -0.627278 0
0.0918551 -0.244656 0
-0.486965 -1.40214 0
0.175549 -1.21746 0
-0.107164 -0.270794 0
-0.00102368 -0.437278 0
