# vtk DataFile Version 2.0
Unstructured Grid by M++
ASCII
DATASET UNSTRUCTURED_GRID
POINTS 289 float
  0.562500   1.000000 0
  0.562500   0.625000 0
  0.625000   1.000000 0
  0.562500   0.937500 0
  0.562500   0.562500 0
  0.625000   0.937500 0
  0.562500   0.875000 0
  0.625000   0.750000 0
  0.625000   0.625000 0
  0.562500   0.812500 0
  0.562500   0.750000 0
  0.562500   0.687500 0
  0.625000   0.875000 0
  0.625000   0.812500 0
  0.625000   0.687500 0
  0.687500   0.125000 0
  0.875000   0.062500 0
  0.625000   0.125000 0
  0.625000   0.187500 0
  0.625000   0.250000 0
  0.812500   0.187500 0
  1.000000   0.125000 0
  0.687500   0.187500 0
  0.750000   0.125000 0
  0.937500   0.062500 0
  0.937500   0.125000 0
  0.750000   0.187500 0
  0.812500   0.062500 0
  0.812500   0.125000 0
  0.875000   0.687500 0
  0.187500   0.250000 0
  0.437500   0.250000 0
  0.375000   0.187500 0
  0.812500   0.625000 0
  0.125000   0.187500 0
  0.937500   0.750000 0
  0.250000   0.312500 0
  0.500000   0.312500 0
  0.625000   0.062500 0
  0.437500   0.500000 0
  0.375000   0.125000 0
  0.437500   0.187500 0
  0.437500   0.437500 0
  0.437500   0.375000 0
  0.875000   0.875000 0
  0.187500   0.375000 0
  0.687500   0.562500 0
  0.687500   0.625000 0
  0.000000   0.125000 0
  0.937500   0.625000 0
  0.250000   0.125000 0
  0.375000   0.062500 0
  0.375000   0.000000 0
  0.812500   0.500000 0
  0.125000   0.000000 0
  0.937500   0.937500 0
  0.250000   0.437500 0
  0.687500   0.875000 0
  0.687500   0.937500 0
  0.000000   0.437500 0
  0.500000   0.500000 0
  0.500000   0.437500 0
  0.750000   0.937500 0
  0.750000   1.000000 0
  0.062500   0.500000 0
  1.000000   1.000000 0
  0.312500   0.500000 0
  0.875000   0.562500 0
  0.187500   0.062500 0
  0.437500   0.125000 0
  0.437500   0.062500 0
  0.500000   0.375000 0
  0.937500   0.812500 0
  0.937500   0.875000 0
  0.250000   0.375000 0
  0.687500   0.812500 0
  0.000000   0.375000 0
  0.750000   0.562500 0
  0.062500   0.125000 0
  1.000000   0.562500 0
  1.000000   0.625000 0
  0.312500   0.125000 0
  0.562500   0.125000 0
  0.437500   0.000000 0
  0.875000   0.437500 0
  0.875000   0.500000 0
  0.187500   0.000000 0
  0.937500   0.562500 0
  0.937500   0.500000 0
  0.250000   0.062500 0
  0.687500   0.500000 0
  0.000000   0.062500 0
  0.500000   0.062500 0
  1.000000   0.875000 0
  1.000000   0.937500 0
  0.312500   0.437500 0
  0.750000   0.875000 0
  0.062500   0.437500 0
  0.812500   0.937500 0
  0.125000   0.500000 0
  0.375000   0.500000 0
  0.625000   0.562500 0
  0.625000   0.500000 0
  0.437500   0.312500 0
  0.875000   0.812500 0
  0.875000   0.750000 0
  0.187500   0.312500 0
  0.812500   0.687500 0
  0.812500   0.750000 0
  0.125000   0.250000 0
  0.375000   0.250000 0
  1.000000   0.687500 0
  0.312500   0.187500 0
  0.750000   0.687500 0
  0.750000   0.625000 0
  0.062500   0.187500 0
  0.562500   0.250000 0
  0.562500   0.187500 0
  0.375000   1.000000 0
  0.500000   0.562500 0
  0.500000   0.250000 0
  0.750000   0.250000 0
  0.500000   0.125000 0
  0.500000   0.187500 0
  1.000000   0.187500 0
  0.625000   0.375000 0
  0.875000   0.375000 0
  1.000000   0.437500 0
  0.312500   0.000000 0
  0.562500   0.000000 0
  0.812500   0.000000 0
  0.250000   0.687500 0
  0.000000   0.687500 0
  0.500000   1.000000 0
  0.250000   1.000000 0
  0.000000   1.000000 0
  0.437500   0.687500 0
  0.437500   0.625000 0
  0.187500   0.625000 0
  0.687500   0.750000 0
  0.000000   0.312500 0
  0.000000   0.250000 0
  0.375000   0.375000 0
  0.375000   0.312500 0
  0.812500   0.812500 0
  0.125000   0.312500 0
  0.875000   0.625000 0
  0.187500   0.187500 0
  0.187500   0.125000 0
  0.937500   1.000000 0
  0.250000   0.562500 0
  0.250000   0.500000 0
  0.687500   1.000000 0
  0.000000   0.500000 0
  0.687500   0.687500 0
  0.000000   0.187500 0
  0.937500   0.687500 0
  0.250000   0.250000 0
  0.250000   0.187500 0
  0.187500   0.687500 0
  0.000000   0.750000 0
  0.250000   0.750000 0
  0.125000   0.625000 0
  0.750000   0.750000 0
  0.062500   0.250000 0
  0.875000   0.937500 0
  0.187500   0.500000 0
  0.187500   0.437500 0
  0.812500   0.562500 0
  0.125000   0.125000 0
  0.125000   0.062500 0
  0.375000   0.625000 0
  0.375000   0.687500 0
  1.000000   0.750000 0
  0.312500   0.250000 0
  0.312500   0.312500 0
  0.812500   0.312500 0
  0.562500   0.312500 0
  0.375000   0.750000 0
  0.500000   0.625000 0
  0.250000   0.625000 0
  0.312500   0.687500 0
  0.750000   0.812500 0
  0.062500   0.312500 0
  0.062500   0.375000 0
  1.000000   0.812500 0
  0.312500   0.375000 0
  0.562500   0.375000 0
  0.687500   0.437500 0
  0.000000   0.000000 0
  0.500000   0.000000 0
  0.937500   0.437500 0
  0.250000   0.000000 0
  0.375000   0.437500 0
  0.812500   0.875000 0
  0.125000   0.375000 0
  0.125000   0.437500 0
  0.625000   0.437500 0
  1.000000   0.500000 0
  0.312500   0.062500 0
  0.750000   0.500000 0
  0.062500   0.000000 0
  0.062500   0.062500 0
  0.562500   0.062500 0
  0.062500   0.750000 0
  0.312500   0.750000 0
  0.312500   0.625000 0
  0.312500   0.562500 0
  0.062500   0.562500 0
  0.187500   1.000000 0
  0.437500   0.562500 0
  0.875000   1.000000 0
  0.187500   0.562500 0
  0.500000   0.937500 0
  0.250000   0.937500 0
  0.312500   1.000000 0
  0.125000   0.750000 0
  0.125000   0.687500 0
  1.000000   0.000000 0
  0.000000   0.937500 0
  0.000000   0.875000 0
  0.875000   0.125000 0
  0.875000   0.187500 0
  0.062500   0.812500 0
  0.312500   0.812500 0
  0.000000   0.812500 0
  0.000000   0.625000 0
  0.000000   0.562500 0
  0.062500   1.000000 0
  0.062500   0.937500 0
  0.937500   0.187500 0
  0.937500   0.250000 0
  0.062500   0.687500 0
  0.062500   0.625000 0
  0.125000   1.000000 0
  1.000000   0.250000 0
  1.000000   0.312500 0
  0.062500   0.875000 0
  0.125000   0.812500 0
  0.375000   0.812500 0
  0.125000   0.875000 0
  0.375000   0.937500 0
  0.375000   0.875000 0
  0.187500   0.750000 0
  0.187500   0.812500 0
  0.437500   0.812500 0
  0.187500   0.875000 0
  0.437500   0.875000 0
  0.375000   0.562500 0
  0.812500   1.000000 0
  0.125000   0.562500 0
  0.437500   1.000000 0
  0.437500   0.937500 0
  0.187500   0.937500 0
  0.125000   0.937500 0
  0.500000   0.687500 0
  0.500000   0.750000 0
  0.500000   0.812500 0
  0.250000   0.812500 0
  0.250000   0.875000 0
  0.500000   0.875000 0
  0.437500   0.750000 0
  0.312500   0.875000 0
  0.312500   0.937500 0
  0.687500   0.250000 0
  0.687500   0.312500 0
  0.937500   0.312500 0
  0.875000   0.250000 0
  0.625000   0.000000 0
  0.875000   0.000000 0
  0.687500   0.375000 0
  0.937500   0.375000 0
  0.875000   0.312500 0
  0.625000   0.312500 0
  0.687500   0.000000 0
  0.937500   0.000000 0
  0.750000   0.312500 0
  0.750000   0.375000 0
  1.000000   0.375000 0
  0.812500   0.250000 0
  0.562500   0.437500 0
  0.562500   0.500000 0
  0.687500   0.062500 0
  0.750000   0.437500 0
  0.750000   0.000000 0
  0.750000   0.062500 0
  1.000000   0.062500 0
  0.812500   0.375000 0
  0.812500   0.437500 0
CELLS 256 1280
4 169 170 148 68
4 151 166 56 167
4 195 45 196 167
4 54 170 201 202
4 109 34 30 147
4 40 32 81 112
4 192 89 86 68
4 48 91 78 202
4 99 64 196 97
4 71 43 37 103
4 74 186 56 95
4 109 164 34 115
4 50 81 158 112
4 122 69 92 70
4 195 145 45 106
4 110 143 174 175
4 157 30 158 147
4 40 69 32 41
4 50 158 148 147
4 141 155 164 115
4 122 123 69 41
4 142 186 143 175
4 60 39 61 42
4 40 51 69 70
4 120 31 123 41
4 157 174 36 175
4 50 148 89 68
4 48 78 155 115
4 52 83 51 70
4 151 56 66 95
4 71 61 43 42
4 169 148 34 147
4 100 193 39 42
4 40 81 51 199
4 110 174 32 112
4 109 30 145 106
4 100 66 193 95
4 169 34 78 115
4 190 92 83 70
4 50 89 81 199
4 54 86 170 68
4 74 56 45 167
4 142 143 43 103
4 153 59 64 97
4 99 196 166 167
4 169 78 170 202
4 142 193 186 95
4 192 128 89 199
4 74 45 36 106
4 110 31 143 103
4 76 184 59 97
4 142 43 193 42
4 52 51 128 199
4 189 201 91 202
4 120 37 31 103
4 74 36 186 175
4 195 196 184 97
4 141 164 140 183
4 157 158 174 112
4 109 145 164 183
4 195 184 145 183
4 110 32 31 41
4 157 36 30 106
4 76 140 184 183
4 171 172 206 181
4 178 172 261 136
4 256 261 255 136
4 256 257 261 245
4 180 150 206 207
4 60 119 39 210
4 118 215 241 263
4 178 205 172 181
4 216 243 238 244
4 162 217 233 232
4 180 206 131 181
4 179 137 119 210
4 216 204 217 232
4 220 237 219 229
4 216 217 243 159
4 259 258 262 224
4 240 254 237 229
4 153 64 227 208
4 161 205 258 224
4 240 237 238 223
4 226 227 233 208
4 234 228 254 229
4 171 248 137 210
4 160 132 204 232
4 180 131 138 159
4 133 251 213 252
4 171 206 248 207
4 162 138 217 159
4 161 258 243 244
4 220 225 237 223
4 151 150 166 212
4 260 247 257 245
4 259 262 214 263
4 151 66 150 207
4 234 254 209 253
4 162 233 250 208
4 242 241 262 263
4 171 137 172 136
4 161 243 131 159
4 160 204 225 223
4 161 131 205 181
4 179 255 137 136
4 216 238 204 223
4 100 39 248 210
4 260 213 247 252
4 226 233 132 232
4 134 214 215 263
4 180 138 150 212
4 178 261 239 245
4 259 246 258 244
4 178 239 205 224
4 240 238 246 244
4 242 262 239 224
4 99 250 64 208
4 240 246 254 253
4 242 239 247 245
4 135 219 228 229
4 99 166 250 212
4 259 214 246 253
4 118 241 251 252
4 100 248 66 207
4 134 209 214 253
4 162 250 138 212
4 242 247 241 252
4 71 187 61 280
4 102 281 197 280
4 122 92 82 203
4 17 18 82 117
4 122 82 123 117
4 19 264 273 265
4 267 279 222 20
4 125 273 270 265
4 267 272 279 176
4 19 116 18 117
4 21 25 286 24
4 23 28 26 20
4 23 285 28 27
4 218 286 275 24
4 85 53 84 288
4 235 236 231 266
4 221 222 28 20
4 267 222 231 230
4 268 38 129 203
4 125 270 197 188
4 126 287 272 176
4 277 270 276 265
4 267 231 272 266
4 125 197 187 280
4 190 129 92 203
4 277 276 287 176
4 19 18 264 22
4 17 82 38 203
4 102 197 90 188
4 126 84 287 288
4 284 130 285 27
4 121 276 264 265
4 71 37 187 177
4 120 123 116 117
4 198 88 127 191
4 221 16 25 24
4 23 26 15 22
4 121 279 276 176
4 235 231 124 230
4 125 187 273 177
4 278 271 236 266
4 277 287 283 288
4 284 285 274 282
4 278 127 271 191
4 269 275 16 24
4 200 283 53 288
4 23 15 285 282
4 121 26 279 20
4 21 124 25 230
4 19 273 116 177
4 200 90 283 188
4 126 271 84 191
4 269 16 130 27
4 17 38 15 282
4 221 25 222 230
4 121 264 26 22
4 120 116 37 177
4 60 61 281 280
4 277 283 270 188
4 126 272 271 266
4 268 274 38 282
4 85 84 88 191
4 17 15 18 22
4 221 28 16 27
4 93 94 73 55
4 85 88 67 87
4 80 49 79 87
4 44 104 73 72
4 146 33 67 168
4 211 165 149 55
4 8 47 14 154
4 105 104 108 144
4 105 108 29 107
4 7 139 13 75
4 44 165 194 98
4 200 53 77 168
4 8 1 101 4
4 2 5 152 58
4 260 6 213 3
4 105 35 104 72
4 96 57 182 75
4 7 14 139 154
4 146 29 33 107
4 7 13 10 9
4 12 13 57 75
4 85 67 53 168
4 44 73 165 55
4 63 152 62 58
4 8 101 47 46
4 96 182 194 144
4 60 281 119 4
4 12 5 6 3
4 173 185 35 72
4 65 149 94 55
4 146 67 49 87
4 114 113 47 154
4 163 108 182 144
4 12 6 13 9
4 173 35 111 156
4 163 182 139 75
4 260 257 6 9
4 105 29 35 156
4 163 139 113 154
4 256 10 257 9
4 146 49 29 156
4 163 113 108 107
4 80 111 49 156
4 102 101 281 4
4 12 57 5 58
4 44 194 104 144
4 96 194 62 98
4 2 0 5 3
4 93 73 185 72
4 179 119 1 4
4 200 77 90 46
4 114 33 113 107
4 7 10 14 11
4 96 62 57 58
4 133 213 0 3
4 102 90 101 46
4 256 255 10 11
4 63 62 249 98
4 114 47 77 46
4 179 1 255 11
4 211 249 165 98
4 114 77 33 168
4 198 79 88 87
4 8 14 1 11
CELL_TYPES 256
8
8
8
8
8
8
8
8
8
8
8
8
8
8
8
8
8
8
8
8
8
8
8
8
8
8
8
8
8
8
8
8
8
8
8
8
8
8
8
8
8
8
8
8
8
8
8
8
8
8
8
8
8
8
8
8
8
8
8
8
8
8
8
8
8
8
8
8
8
8
8
8
8
8
8
8
8
8
8
8
8
8
8
8
8
8
8
8
8
8
8
8
8
8
8
8
8
8
8
8
8
8
8
8
8
8
8
8
8
8
8
8
8
8
8
8
8
8
8
8
8
8
8
8
8
8
8
8
8
8
8
8
8
8
8
8
8
8
8
8
8
8
8
8
8
8
8
8
8
8
8
8
8
8
8
8
8
8
8
8
8
8
8
8
8
8
8
8
8
8
8
8
8
8
8
8
8
8
8
8
8
8
8
8
8
8
8
8
8
8
8
8
8
8
8
8
8
8
8
8
8
8
8
8
8
8
8
8
8
8
8
8
8
8
8
8
8
8
8
8
8
8
8
8
8
8
8
8
8
8
8
8
8
8
8
8
8
8
8
8
8
8
8
8
8
8
8
8
8
8
8
8
8
8
8
8
CELL_DATA 256
VECTORS vector_value float
0.00107394 -0.000282971 0
0.509712 0.0718367 0
0.0241812 -0.00390541 0
0.000599138 -0.00610749 0
7.20032e-05 -3.88429e-05 0
-0.703317 -1.1568 0
0.000847479 -0.000851253 0
0.00247167 -0.00392382 0
0.448122 -0.11349 0
-2.49809 -2.76155 0
0.0415669 0.00373783 0
0.00045312 -0.000301793 0
0.000520953 -0.000389689 0
-0.503516 -0.365905 0
1.46369e-06 -4.44583e-06 0
1.26482e-05 -9.48078e-05 0
1.96057e-05 -7.1466e-06 0
-0.148305 -10.6588 0
0.00112992 -5.30155e-05 0
-3.39576e-05 -0.011401 0
-1.00613 -1.91407 0
0.000171605 -0.000171416 0
1.98571 -9.2862 0
-3.07363 -9.68233 0
-0.781769 -1.58958 0
8.03728e-06 -7.82116e-06 0
0.000456249 -0.000266317 0
0.00308326 -0.0110061 0
-0.927583 -6.69078 0
0.36239 0.0153807 0
2.19679 -2.33822 0
0.00114986 -3.82068e-05 0
0.548742 -0.391178 0
-1.7598 -3.76133 0
-0.00676398 -0.00548121 0
1.90392e-07 -4.67355e-07 0
0.244501 0.0852252 0
0.0004103 -8.76298e-05 0
-0.0167297 -0.0246705 0
0.000727695 -0.000539529 0
0.00196346 -0.00238923 0
0.0343849 -0.00524841 0
-0.0328079 -0.0361059 0
0.227427 -0.190039 0
0.528987 -0.00862447 0
0.00679131 -0.00595156 0
0.0195922 0.00872485 0
0.000426306 -0.00053878 0
2.49141e-06 -4.2905e-06 0
-0.805083 -0.694963 0
0.00564398 -0.0127091 0
0.000917395 -0.00262981 0
-1.29241 -7.09661 0
4.63755e-05 -0.000523024 0
-8.14827 -10.5626 0
1.02954e-05 -1.52993e-05 0
0.0637486 -0.0109597 0
-1.98487e-05 -0.0117086 0
1.79495e-05 -6.62747e-06 0
-1.25478e-05 -4.84359e-05 0
-7.14762e-05 -0.00019517 0
-5.59799 -10.9586 0
3.61791e-06 -2.29262e-06 0
-2.63306e-05 -0.0115611 0
-0.00869223 -0.072503 0
3.63126 -5.72063 0
4.93772 -4.6643 0
0.338373 -2.0178 0
0.000406994 -0.000199867 0
-3.35949 -7.54075 0
4.48001 -1.12073 0
-0.0216186 -0.034478 0
-0.00210922 -0.0170997 0
-0.00345734 -0.0222149 0
0.000174582 -0.000556276 0
0.54177 -1.70593 0
-0.0193154 -0.0438306 0
0.0388536 -0.480546 0
-0.00345097 -0.00641535 0
0.0136683 0.000560903 0
0.649416 -0.742742 0
0.0189358 -0.494414 0
0.00690102 -0.000637801 0
0.0715708 -0.108109 0
0.0188772 -0.555643 0
0.312122 -1.10741 0
0.0316825 -0.0345842 0
-0.0229592 -0.521725 0
9.26471e-05 -3.72328e-05 0
-0.705869 -0.25625 0
-0.0119263 -0.112447 0
-6.46521e-05 -0.000351368 0
0.00437393 -0.0017264 0
0.0920161 -0.472294 0
0.015906 0.0132898 0
-1.19235 -0.597129 0
0.044296 0.0170605 0
0.155887 0.0724731 0
0.678553 -0.788578 0
0.00279514 -0.015968 0
0.417832 -0.378251 0
0.0869983 -0.30089 0
0.000270479 -0.000201319 0
-0.0906222 -0.344957 0
0.000412841 -0.000306741 0
2.59305 -3.49337 0
-0.0728041 -0.21198 0
0.124622 -0.212321 0
-0.694123 -0.172554 0
-0.00408341 -0.549246 0
3.86252 0.220378 0
1.07776e-05 -2.32605e-06 0
0.520873 -8.66799 0
0.0654271 0.0269231 0
0.00180837 -0.0150273 0
0.162278 -0.033415 0
0.0162156 -0.0203179 0
0.0361559 -0.0718277 0
1.09311 -0.303749 0
-0.183494 -8.47181 0
0.210137 -0.918171 0
0.0067419 -0.000298842 0
1.4726 0.897232 0
1.54061 -4.12709 0
0.350266 -0.00599084 0
1.38546 0.0448779 0
1.3974e-05 -0.000159083 0
0.176186 -7.45904 0
4.58822 -10.8742 0
-0.00056998 -0.000615659 0
-0.00308325 -0.00046461 0
0.22861 -1.10698 0
-0.0816606 -0.0448763 0
-0.626306 -0.584474 0
-0.00983048 -0.0537534 0
-0.588243 -0.413445 0
-0.0788769 -0.079021 0
-0.117781 -0.659468 0
0.0322549 -0.845068 0
-0.00571097 -0.00303252 0
-0.00771165 -0.00670209 0
0.00120094 -0.857847 0
-0.00294176 -0.04287 0
0.138142 -0.405311 0
-0.005159 -0.0298058 0
0.185538 -0.426008 0
3.41003e-05 -0.0119855 0
-0.00176286 -0.00129042 0
-1.73124 -0.473501 0
-1.28436 -0.012466 0
-0.0258172 -0.520587 0
0.00844836 -0.0118318 0
-0.000217502 -0.00026325 0
-1.6413 -0.202556 0
-0.442444 -0.473753 0
0.0762895 -0.0602872 0
-1.59931e-05 -1.37196e-05 0
-0.00468791 -0.0710203 0
-0.00571592 -0.00599044 0
-0.270513 -0.214757 0
-5.06733 -10.2371 0
-0.760917 -1.18251 0
0.0220153 -0.0165236 0
0.0108754 -0.0241535 0
-0.0574929 -0.0472465 0
-0.163269 -0.146409 0
0.164106 -0.451407 0
-0.41132 -0.426888 0
-0.0711938 -0.139547 0
-0.00105042 0.000635148 0
0.0578705 -0.138427 0
0.107525 -0.229664 0
0.0130473 -0.0242959 0
-3.27051e-05 -2.92005e-05 0
-0.00173272 -0.0181115 0
-0.0318996 -0.00217038 0
0.0331915 -0.770312 0
-0.366667 -0.639153 0
-3.41904e-05 -3.04075e-05 0
-0.00265755 -2.45218 0
0.00512055 -0.012524 0
0.579436 -1.19319 0
0.0291687 -0.110368 0
-0.213898 -0.185486 0
-0.836867 -2.14089 0
-0.788706 -3.42885 0
-0.00376237 0.000745801 0
-0.792948 -1.28494 0
-3.9056e-05 -1.12619 0
0.396621 -2.69398 0
-0.0719046 -0.146088 0
-0.0072654 -0.031502 0
0.072648 -2.43062 0
0.352838 -1.84806 0
0.000914203 -0.015263 0
-1.65971 -1.66377 0
-0.0332706 -1.54381 0
0.783994 -0.778399 0
-0.682518 -0.221873 0
-0.707018 -1.85878 0
0.306999 -1.26218 0
0.00185991 -0.00317059 0
0.780928 -0.16879 0
-0.00183604 0.000867381 0
-0.746571 -0.254837 0
-0.667738 -1.43133 0
-1.43325 -0.802132 0
-0.156174 -1.71842 0
0.00490482 -0.0201737 0
7.47209e-05 -0.0012406 0
-0.833339 -1.33322 0
-0.0405541 -0.094079 0
-0.0382046 -0.0390735 0
0.609608 -0.903759 0
0.485124 -0.548238 0
-0.693316 -0.757205 0
-0.269669 -0.101728 0
0.025001 -0.0189963 0
-0.627707 -5.00351 0
-2.5458 -2.20417 0
-0.0178553 -0.117084 0
0.452309 -1.74846 0
0.0452725 -1.21563 0
-0.835918 -0.0424796 0
0.000855193 -0.00157076 0
-0.084803 -0.162415 0
-0.0424077 -0.0283782 0
0.000425143 -0.00666476 0
-1.79567 -2.41762 0
0.179342 -2.35796 0
-0.00703129 -0.0119021 0
0.0773347 -0.923018 0
-0.472342 -1.85619 0
-0.0613377 -0.0448254 0
-0.000583669 -0.00134546 0
-0.00307133 -0.00314707 0
-1.09025 -0.387667 0
-0.0512011 -0.3548 0
0.608432 -0.283688 0
-0.108996 -1.36409 0
-0.963367 -1.64756 0
-2.5066 -10.3946 0
-0.000220248 5.12547e-05 0
-0.831286 -0.0716581 0
-0.00430645 -0.0230658 0
-0.112479 -0.552108 0
-0.0156049 -0.850009 0
-9.9977e-05 6.71791e-06 0
0.108666 -1.27857 0
-0.439126 -0.828032 0
-0.102929 -0.029392 0
3.82075 -7.90252 0
0.151436 -0.189488 0
-0.0473053 -0.0197913 0
0.000223551 -0.00261828 0
-0.211668 -0.131531 0
