# vtk DataFile Version 2.0
Unstructured Grid by M++
ASCII
DATASET UNSTRUCTURED_GRID
POINTS 81 float
  1.000000   0.625000 0
  0.750000   0.375000 0
  1.000000   0.000000 0
  0.875000   0.875000 0
  0.750000   0.125000 0
  1.000000   1.000000 0
  0.875000   0.250000 0
  0.625000   0.875000 0
  1.000000   0.750000 0
  0.875000   0.000000 0
  1.000000   0.250000 0
  0.625000   0.375000 0
  0.875000   0.500000 0
  0.625000   0.625000 0
  1.000000   0.500000 0
  0.750000   0.500000 0
  0.750000   1.000000 0
  1.000000   0.125000 0
  0.625000   0.250000 0
  0.750000   0.750000 0
  0.625000   0.000000 0
  0.125000   0.375000 0
  0.000000   0.500000 0
  0.125000   0.625000 0
  0.625000   1.000000 0
  1.000000   0.875000 0
  0.875000   0.125000 0
  0.500000   0.250000 0
  0.625000   0.500000 0
  0.250000   0.625000 0
  0.000000   0.625000 0
  0.375000   0.500000 0
  0.375000   0.000000 0
  0.000000   0.125000 0
  0.125000   0.875000 0
  0.875000   1.000000 0
  0.750000   0.250000 0
  0.375000   0.375000 0
  0.250000   0.375000 0
  0.625000   0.750000 0
  0.125000   0.125000 0
  0.500000   0.000000 0
  0.250000   0.875000 0
  0.125000   0.500000 0
  0.500000   0.375000 0
  0.125000   0.000000 0
  0.250000   0.750000 0
  0.250000   0.500000 0
  0.000000   0.875000 0
  0.875000   0.625000 0
  0.500000   0.750000 0
  0.750000   0.625000 0
  0.250000   0.000000 0
  0.375000   0.750000 0
  0.750000   0.875000 0
  0.625000   0.125000 0
  0.250000   0.250000 0
  0.375000   1.000000 0
  0.375000   0.250000 0
  0.000000   0.375000 0
  0.500000   1.000000 0
  0.875000   0.750000 0
  0.750000   0.000000 0
  0.375000   0.125000 0
  0.500000   0.875000 0
  0.000000   0.000000 0
  0.125000   0.750000 0
  0.500000   0.625000 0
  0.125000   0.250000 0
  0.500000   0.125000 0
  0.250000   1.000000 0
  0.250000   0.125000 0
  0.000000   1.000000 0
  0.375000   0.875000 0
  0.000000   0.750000 0
  0.375000   0.625000 0
  0.000000   0.250000 0
  0.125000   1.000000 0
  1.000000   0.375000 0
  0.500000   0.500000 0
  0.875000   0.375000 0
CELLS 64 320
4 56 71 58 63
4 27 58 69 63
4 41 69 32 63
4 76 33 68 40
4 27 44 58 37
4 79 31 44 37
4 56 38 68 21
4 56 58 38 37
4 52 32 71 63
4 47 38 31 37
4 76 68 59 21
4 22 59 43 21
4 65 45 33 40
4 47 43 38 21
4 52 71 45 40
4 56 68 71 40
4 74 30 66 23
4 46 66 29 23
4 22 43 30 23
4 72 48 77 34
4 46 53 42 73
4 50 64 53 73
4 70 42 57 73
4 74 66 48 34
4 46 42 66 34
4 47 29 43 23
4 70 77 42 34
4 60 57 64 73
4 79 67 31 75
4 47 31 29 75
4 50 53 67 75
4 46 29 53 75
4 10 78 6 80
4 36 6 1 80
4 15 1 12 80
4 36 4 6 26
4 14 12 78 80
4 2 17 9 26
4 36 18 4 55
4 15 28 1 11
4 62 4 20 55
4 10 6 17 26
4 27 18 44 11
4 62 9 4 26
4 27 69 18 55
4 36 1 18 11
4 41 20 69 55
4 79 44 28 11
4 16 24 54 7
4 19 54 39 7
4 50 39 64 7
4 8 25 61 3
4 60 64 24 7
4 79 28 67 13
4 19 51 61 49
4 8 61 0 49
4 15 51 28 13
4 19 39 51 13
4 50 67 39 13
4 19 61 54 3
4 14 0 12 49
4 5 35 25 3
4 15 12 51 49
4 16 54 35 3
CELL_TYPES 64
8
8
8
8
8
8
8
8
8
8
8
8
8
8
8
8
8
8
8
8
8
8
8
8
8
8
8
8
8
8
8
8
8
8
8
8
8
8
8
8
8
8
8
8
8
8
8
8
8
8
8
8
8
8
8
8
8
8
8
8
8
8
8
8
CELL_DATA 64
VECTORS vector_value float
0.10658 -0.107944 0
0.864597 -1.28896 0
0.111061 -0.878863 0
0.0942232 -1.69957 0
0.214635 -2.56948 0
0.131388 -3.02909 0
0.0847478 -0.526289 0
-0.0252763 -0.129351 0
0.0326828 -0.0569337 0
-0.00745356 -0.16977 0
0.090694 -1.7483 0
-0.387207 -1.88502 0
0.117138 -1.33664 0
-0.186401 -0.332283 0
0.18015 -0.836281 0
0.0859743 -0.507575 0
-0.162904 -0.737656 0
0.122577 -1.35153 0
-0.0642595 -1.03441 0
0.0722583 -1.16638 0
0.0033941 -0.848217 0
0.0473828 -0.706565 0
-0.451217 -0.757661 0
0.0912597 -0.569306 0
0.366805 -2.18733 0
-0.574359 -0.745515 0
-0.30425 -1.18801 0
-0.433931 -1.33894 0
0.117558 -2.13497 0
0.272385 -1.35242 0
-0.203468 -0.684026 0
0.372964 -1.45915 0
0.0426926 -0.368793 0
-0.0786923 -1.66528 0
-0.169082 -1.84518 0
-0.34151 -0.683018 0
-0.0375045 -0.321938 0
0.0493016 -0.775849 0
-0.879873 -0.618777 0
0.0292868 -0.134442 0
-0.255376 -0.565108 0
0.147806 -0.598242 0
0.2939 -0.645614 0
-0.00706481 -0.0283831 0
0.429936 -2.49591 0
-0.0588753 -0.346892 0
-0.0643105 -3.52194 0
0.0181756 -0.282285 0
-0.444274 -0.48315 0
-0.0859321 -0.166741 0
0.066682 -1.59876 0
-0.116386 -1.68368 0
-0.636671 -1.1725 0
-0.047624 -0.520516 0
-0.174577 -0.528741 0
-0.104654 -1.37421 0
0.176222 -0.27414 0
0.0630447 -0.132166 0
-0.440496 -1.73252 0
-0.0506654 -0.239398 0
-0.409989 -1.05238 0
0.324874 -1.54019 0
-0.15215 -0.885648 0
0.262604 -0.353163 0
