# vtk DataFile Version 2.0
Unstructured Grid by M++
ASCII
DATASET UNSTRUCTURED_GRID
POINTS 81 float
  1.000000   0.625000 0
  0.750000   0.375000 0
  1.000000   0.000000 0
  0.875000   0.875000 0
  0.750000   0.125000 0
  1.000000   1.000000 0
  0.875000   0.250000 0
  0.625000   0.875000 0
  1.000000   0.750000 0
  0.875000   0.000000 0
  1.000000   0.250000 0
  0.625000   0.375000 0
  0.875000   0.500000 0
  0.625000   0.625000 0
  1.000000   0.500000 0
  0.750000   0.500000 0
  0.750000   1.000000 0
  1.000000   0.125000 0
  0.625000   0.250000 0
  0.750000   0.750000 0
  0.625000   0.000000 0
  0.125000   0.375000 0
  0.000000   0.500000 0
  0.125000   0.625000 0
  0.625000   1.000000 0
  1.000000   0.875000 0
  0.875000   0.125000 0
  0.500000   0.250000 0
  0.625000   0.500000 0
  0.250000   0.625000 0
  0.000000   0.625000 0
  0.375000   0.500000 0
  0.375000   0.000000 0
  0.000000   0.125000 0
  0.125000   0.875000 0
  0.875000   1.000000 0
  0.750000   0.250000 0
  0.375000   0.375000 0
  0.250000   0.375000 0
  0.625000   0.750000 0
  0.125000   0.125000 0
  0.500000   0.000000 0
  0.250000   0.875000 0
  0.125000   0.500000 0
  0.500000   0.375000 0
  0.125000   0.000000 0
  0.250000   0.750000 0
  0.250000   0.500000 0
  0.000000   0.875000 0
  0.875000   0.625000 0
  0.500000   0.750000 0
  0.750000   0.625000 0
  0.250000   0.000000 0
  0.375000   0.750000 0
  0.750000   0.875000 0
  0.625000   0.125000 0
  0.250000   0.250000 0
  0.375000   1.000000 0
  0.375000   0.250000 0
  0.000000   0.375000 0
  0.500000   1.000000 0
  0.875000   0.750000 0
  0.750000   0.000000 0
  0.375000   0.125000 0
  0.500000   0.875000 0
  0.000000   0.000000 0
  0.125000   0.750000 0
  0.500000   0.625000 0
  0.125000   0.250000 0
  0.500000   0.125000 0
  0.250000   1.000000 0
  0.250000   0.125000 0
  0.000000   1.000000 0
  0.375000   0.875000 0
  0.000000   0.750000 0
  0.375000   0.625000 0
  0.000000   0.250000 0
  0.125000   1.000000 0
  1.000000   0.375000 0
  0.500000   0.500000 0
  0.875000   0.375000 0
CELLS 64 320
4 56 71 58 63
4 27 58 69 63
4 41 69 32 63
4 76 33 68 40
4 27 44 58 37
4 79 31 44 37
4 56 38 68 21
4 56 58 38 37
4 52 32 71 63
4 47 38 31 37
4 76 68 59 21
4 22 59 43 21
4 65 45 33 40
4 47 43 38 21
4 52 71 45 40
4 56 68 71 40
4 74 30 66 23
4 46 66 29 23
4 22 43 30 23
4 72 48 77 34
4 46 53 42 73
4 50 64 53 73
4 70 42 57 73
4 74 66 48 34
4 46 42 66 34
4 47 29 43 23
4 70 77 42 34
4 60 57 64 73
4 79 67 31 75
4 47 31 29 75
4 50 53 67 75
4 46 29 53 75
4 10 78 6 80
4 36 6 1 80
4 15 1 12 80
4 36 4 6 26
4 14 12 78 80
4 2 17 9 26
4 36 18 4 55
4 15 28 1 11
4 62 4 20 55
4 10 6 17 26
4 27 18 44 11
4 62 9 4 26
4 27 69 18 55
4 36 1 18 11
4 41 20 69 55
4 79 44 28 11
4 16 24 54 7
4 19 54 39 7
4 50 39 64 7
4 8 25 61 3
4 60 64 24 7
4 79 28 67 13
4 19 51 61 49
4 8 61 0 49
4 15 51 28 13
4 19 39 51 13
4 50 67 39 13
4 19 61 54 3
4 14 0 12 49
4 5 35 25 3
4 15 12 51 49
4 16 54 35 3
CELL_TYPES 64
8
8
8
8
8
8
8
8
8
8
8
8
8
8
8
8
8
8
8
8
8
8
8
8
8
8
8
8
8
8
8
8
8
8
8
8
8
8
8
8
8
8
8
8
8
8
8
8
8
8
8
8
8
8
8
8
8
8
8
8
8
8
8
8
CELL_DATA 64
VECTORS vector_value float
-0.0379968 -0.256529 0
0.032637 -0.0543981 0
0.0171991 -0.0435444 0
0.464575 -4.27189 0
0.242226 -0.239545 0
0.283635 -0.201209 0
0.051437 -0.538061 0
0.0469201 -0.346599 0
0.00514486 -0.214175 0
0.233967 -0.490663 0
0.132344 -5.04225 0
-0.970617 -5.15562 0
0.143649 -3.67109 0
0.0672558 -0.602119 0
0.164683 -2.01354 0
0.464673 -1.39311 0
0.019995 -0.561078 0
-0.0685774 -3.01427 0
-1.26335 -1.96344 0
-0.351639 -1.49317 0
-0.374711 -0.331476 0
-1.75328 -2.28441 0
-0.607104 -0.292019 0
0.513438 -1.61125 0
-0.0144326 -1.55317 0
-3.03973 -3.17942 0
-0.775727 -1.13829 0
-0.681113 -1.78352 0
0.105843 -0.17157 0
-0.75247 -1.36908 0
-0.664857 -0.758462 0
-1.80461 -2.34678 0
0.228871 -0.617594 0
0.561879 -0.81435 0
0.16077 -0.761164 0
0.140172 -0.391634 0
0.135378 -0.416774 0
0.043086 -1.44295 0
0.120441 -0.267816 0
0.0815552 -0.150702 0
0.0283552 -0.241052 0
0.221165 -1.26046 0
0.354932 -0.154043 0
0.0649884 -0.288655 0
0.0918908 -0.104159 0
0.42615 -0.247562 0
0.0220649 -0.0849937 0
0.24548 -0.221748 0
-1.12128 -0.426453 0
-0.211102 -0.0967765 0
-0.973293 -0.925261 0
-0.383147 -0.882243 0
-1.24863 -1.23877 0
0.0131472 -0.0419004 0
-0.186333 -0.736427 0
-0.0374841 -0.277456 0
0.0499616 -0.188227 0
-0.017231 -0.214771 0
0.0132321 -0.090749 0
-0.440049 -0.315421 0
-0.0200507 -0.199918 0
0.040836 -1.25731 0
0.0492016 -0.88645 0
-0.252524 -0.370477 0
