# vtk DataFile Version 2.0
Unstructured Grid by M++
ASCII
DATASET UNSTRUCTURED_GRID
POINTS 81 float
  1.000000   0.625000 0
  0.750000   0.375000 0
  1.000000   0.000000 0
  0.875000   0.875000 0
  0.750000   0.125000 0
  1.000000   1.000000 0
  0.875000   0.250000 0
  0.625000   0.875000 0
  1.000000   0.750000 0
  0.875000   0.000000 0
  1.000000   0.250000 0
  0.625000   0.375000 0
  0.875000   0.500000 0
  0.625000   0.625000 0
  1.000000   0.500000 0
  0.750000   0.500000 0
  0.750000   1.000000 0
  1.000000   0.125000 0
  0.625000   0.250000 0
  0.750000   0.750000 0
  0.625000   0.000000 0
  0.125000   0.375000 0
  0.000000   0.500000 0
  0.125000   0.625000 0
  0.625000   1.000000 0
  1.000000   0.875000 0
  0.875000   0.125000 0
  0.500000   0.250000 0
  0.625000   0.500000 0
  0.250000   0.625000 0
  0.000000   0.625000 0
  0.375000   0.500000 0
  0.375000   0.000000 0
  0.000000   0.125000 0
  0.125000   0.875000 0
  0.875000   1.000000 0
  0.750000   0.250000 0
  0.375000   0.375000 0
  0.250000   0.375000 0
  0.625000   0.750000 0
  0.125000   0.125000 0
  0.500000   0.000000 0
  0.250000   0.875000 0
  0.125000   0.500000 0
  0.500000   0.375000 0
  0.125000   0.000000 0
  0.250000   0.750000 0
  0.250000   0.500000 0
  0.000000   0.875000 0
  0.875000   0.625000 0
  0.500000   0.750000 0
  0.750000   0.625000 0
  0.250000   0.000000 0
  0.375000   0.750000 0
  0.750000   0.875000 0
  0.625000   0.125000 0
  0.250000   0.250000 0
  0.375000   1.000000 0
  0.375000   0.250000 0
  0.000000   0.375000 0
  0.500000   1.000000 0
  0.875000   0.750000 0
  0.750000   0.000000 0
  0.375000   0.125000 0
  0.500000   0.875000 0
  0.000000   0.000000 0
  0.125000   0.750000 0
  0.500000   0.625000 0
  0.125000   0.250000 0
  0.500000   0.125000 0
  0.250000   1.000000 0
  0.250000   0.125000 0
  0.000000   1.000000 0
  0.375000   0.875000 0
  0.000000   0.750000 0
  0.375000   0.625000 0
  0.000000   0.250000 0
  0.125000   1.000000 0
  1.000000   0.375000 0
  0.500000   0.500000 0
  0.875000   0.375000 0
CELLS 64 320
4 56 71 58 63
4 27 58 69 63
4 41 69 32 63
4 76 33 68 40
4 27 44 58 37
4 79 31 44 37
4 56 38 68 21
4 56 58 38 37
4 52 32 71 63
4 47 38 31 37
4 76 68 59 21
4 22 59 43 21
4 65 45 33 40
4 47 43 38 21
4 52 71 45 40
4 56 68 71 40
4 74 30 66 23
4 46 66 29 23
4 22 43 30 23
4 72 48 77 34
4 46 53 42 73
4 50 64 53 73
4 70 42 57 73
4 74 66 48 34
4 46 42 66 34
4 47 29 43 23
4 70 77 42 34
4 60 57 64 73
4 79 67 31 75
4 47 31 29 75
4 50 53 67 75
4 46 29 53 75
4 10 78 6 80
4 36 6 1 80
4 15 1 12 80
4 36 4 6 26
4 14 12 78 80
4 2 17 9 26
4 36 18 4 55
4 15 28 1 11
4 62 4 20 55
4 10 6 17 26
4 27 18 44 11
4 62 9 4 26
4 27 69 18 55
4 36 1 18 11
4 41 20 69 55
4 79 44 28 11
4 16 24 54 7
4 19 54 39 7
4 50 39 64 7
4 8 25 61 3
4 60 64 24 7
4 79 28 67 13
4 19 51 61 49
4 8 61 0 49
4 15 51 28 13
4 19 39 51 13
4 50 67 39 13
4 19 61 54 3
4 14 0 12 49
4 5 35 25 3
4 15 12 51 49
4 16 54 35 3
CELL_TYPES 64
8
8
8
8
8
8
8
8
8
8
8
8
8
8
8
8
8
8
8
8
8
8
8
8
8
8
8
8
8
8
8
8
8
8
8
8
8
8
8
8
8
8
8
8
8
8
8
8
8
8
8
8
8
8
8
8
8
8
8
8
8
8
8
8
CELL_DATA 64
VECTORS vector_value float
0.407123 -0.541058 0
0.0512154 -0.777179 0
0.0268886 -0.762211 0
-0.0198132 -0.340877 0
0.0176729 -0.134837 0
0.0212707 -0.0551232 0
0.615429 -1.31742 0
0.260303 -0.268852 0
0.00315963 -0.474669 0
0.0130886 -0.0238092 0
0.112132 -0.362279 0
0.389884 -1.16645 0
-0.2494 -0.782284 0
0.184722 -0.81958 0
-0.128792 -0.303721 0
0.0235659 -0.786656 0
-0.14724 -0.98788 0
-0.346926 -0.927066 0
0.0024058 -1.50125 0
-0.246694 -1.48479 0
-0.135197 -0.478264 0
0.821558 -1.45368 0
0.638541 -0.827238 0
0.226018 -1.17894 0
0.109832 -0.502091 0
0.105285 -0.502899 0
-0.0187257 -0.0633381 0
0.304441 -2.00045 0
0.0775281 -0.116363 0
0.00981481 -0.0206666 0
0.242127 -0.239214 0
-0.0196451 -0.28581 0
0.212594 -0.63236 0
0.329742 -1.383 0
-0.430738 -1.9832 0
0.524433 -0.634947 0
-0.0464088 -0.275371 0
0.159381 -2.10448 0
0.0425947 -0.266818 0
-0.55838 -2.34779 0
0.435382 -1.05461 0
0.549499 -1.61984 0
-0.972195 -2.85902 0
0.116028 -0.179149 0
0.146576 -3.03263 0
-0.479715 -1.04222 0
0.151593 -2.33888 0
0.018005 -1.32868 0
0.226379 -0.56439 0
0.248244 -1.49053 0
1.26619 -0.928463 0
0.162799 -1.19332 0
-0.139629 -0.642708 0
0.21467 -1.49097 0
0.0936487 -0.717532 0
0.0188763 -1.42663 0
0.188101 -1.95465 0
0.280891 -1.96608 0
0.347736 -1.44979 0
0.128466 -0.77471 0
-0.47709 -1.1235 0
-0.000846461 -0.827133 0
-0.12337 -1.2897 0
0.0751817 -1.58995 0
