# vtk DataFile Version 2.0
Unstructured Grid by M++
ASCII
DATASET UNSTRUCTURED_GRID
POINTS 81 float
  1.000000   0.625000 0
  0.750000   0.375000 0
  1.000000   0.000000 0
  0.875000   0.875000 0
  0.750000   0.125000 0
  1.000000   1.000000 0
  0.875000   0.250000 0
  0.625000   0.875000 0
  1.000000   0.750000 0
  0.875000   0.000000 0
  1.000000   0.250000 0
  0.625000   0.375000 0
  0.875000   0.500000 0
  0.625000   0.625000 0
  1.000000   0.500000 0
  0.750000   0.500000 0
  0.750000   1.000000 0
  1.000000   0.125000 0
  0.625000   0.250000 0
  0.750000   0.750000 0
  0.625000   0.000000 0
  0.125000   0.375000 0
  0.000000   0.500000 0
  0.125000   0.625000 0
  0.625000   1.000000 0
  1.000000   0.875000 0
  0.875000   0.125000 0
  0.500000   0.250000 0
  0.625000   0.500000 0
  0.250000   0.625000 0
  0.000000   0.625000 0
  0.375000   0.500000 0
  0.375000   0.000000 0
  0.000000   0.125000 0
  0.125000   0.875000 0
  0.875000   1.000000 0
  0.750000   0.250000 0
  0.375000   0.375000 0
  0.250000   0.375000 0
  0.625000   0.750000 0
  0.125000   0.125000 0
  0.500000   0.000000 0
  0.250000   0.875000 0
  0.125000   0.500000 0
  0.500000   0.375000 0
  0.125000   0.000000 0
  0.250000   0.750000 0
  0.250000   0.500000 0
  0.000000   0.875000 0
  0.875000   0.625000 0
  0.500000   0.750000 0
  0.750000   0.625000 0
  0.250000   0.000000 0
  0.375000   0.750000 0
  0.750000   0.875000 0
  0.625000   0.125000 0
  0.250000   0.250000 0
  0.375000   1.000000 0
  0.375000   0.250000 0
  0.000000   0.375000 0
  0.500000   1.000000 0
  0.875000   0.750000 0
  0.750000   0.000000 0
  0.375000   0.125000 0
  0.500000   0.875000 0
  0.000000   0.000000 0
  0.125000   0.750000 0
  0.500000   0.625000 0
  0.125000   0.250000 0
  0.500000   0.125000 0
  0.250000   1.000000 0
  0.250000   0.125000 0
  0.000000   1.000000 0
  0.375000   0.875000 0
  0.000000   0.750000 0
  0.375000   0.625000 0
  0.000000   0.250000 0
  0.125000   1.000000 0
  1.000000   0.375000 0
  0.500000   0.500000 0
  0.875000   0.375000 0
CELLS 64 320
4 56 71 58 63
4 27 58 69 63
4 41 69 32 63
4 76 33 68 40
4 27 44 58 37
4 79 31 44 37
4 56 38 68 21
4 56 58 38 37
4 52 32 71 63
4 47 38 31 37
4 76 68 59 21
4 22 59 43 21
4 65 45 33 40
4 47 43 38 21
4 52 71 45 40
4 56 68 71 40
4 74 30 66 23
4 46 66 29 23
4 22 43 30 23
4 72 48 77 34
4 46 53 42 73
4 50 64 53 73
4 70 42 57 73
4 74 66 48 34
4 46 42 66 34
4 47 29 43 23
4 70 77 42 34
4 60 57 64 73
4 79 67 31 75
4 47 31 29 75
4 50 53 67 75
4 46 29 53 75
4 10 78 6 80
4 36 6 1 80
4 15 1 12 80
4 36 4 6 26
4 14 12 78 80
4 2 17 9 26
4 36 18 4 55
4 15 28 1 11
4 62 4 20 55
4 10 6 17 26
4 27 18 44 11
4 62 9 4 26
4 27 69 18 55
4 36 1 18 11
4 41 20 69 55
4 79 44 28 11
4 16 24 54 7
4 19 54 39 7
4 50 39 64 7
4 8 25 61 3
4 60 64 24 7
4 79 28 67 13
4 19 51 61 49
4 8 61 0 49
4 15 51 28 13
4 19 39 51 13
4 50 67 39 13
4 19 61 54 3
4 14 0 12 49
4 5 35 25 3
4 15 12 51 49
4 16 54 35 3
CELL_TYPES 64
8
8
8
8
8
8
8
8
8
8
8
8
8
8
8
8
8
8
8
8
8
8
8
8
8
8
8
8
8
8
8
8
8
8
8
8
8
8
8
8
8
8
8
8
8
8
8
8
8
8
8
8
8
8
8
8
8
8
8
8
8
8
8
8
CELL_DATA 64
VECTORS vector_value float
0.0944269 -0.304203 0
0.102602 -1.15134 0
0.103616 -0.880006 0
-0.0363308 -0.0965875 0
-0.256442 -0.680317 0
0.208964 -0.681665 0
-0.0679527 -0.259566 0
-0.0606472 -0.27849 0
0.0334558 -0.330221 0
0.0857413 -0.347767 0
-0.0189804 -0.0581908 0
0.00553928 -0.0367832 0
-0.00582793 -0.15627 0
0.0391777 -0.207102 0
0.000877729 -0.0368778 0
0.0322829 -0.224077 0
-0.0052865 -0.033994 0
-0.0102549 -0.243072 0
-0.00121789 -0.052359 0
0.442097 -0.366877 0
1.37172 -2.05114 0
0.66483 -0.506499 0
-0.0578356 -1.35231 0
0.0409011 -0.0492151 0
0.72277 -0.770915 0
0.00402311 -0.274337 0
0.604514 -1.5439 0
0.12105 -0.312745 0
0.569323 -0.994523 0
0.0480619 -0.393359 0
1.03995 -1.31739 0
0.632393 -1.45487 0
0.223634 -1.46973 0
0.749137 -1.38068 0
0.481817 -1.72446 0
0.215779 -1.75909 0
0.353323 -0.770173 0
-0.169205 -1.66753 0
0.0501813 -0.719936 0
-0.328754 -3.23082 0
0.280609 -2.0197 0
0.0909609 -2.16881 0
-0.700411 -2.02262 0
-0.456597 -1.8687 0
0.335275 -1.57596 0
0.540713 -1.85041 0
0.416923 -1.04069 0
0.120731 -1.00123 0
-0.0426232 -1.72701 0
0.410027 -2.29365 0
0.584582 -0.964668 0
-0.00718974 -0.185085 0
0.518484 -1.04892 0
1.15897 -1.09097 0
0.510241 -1.42976 0
0.248827 -0.6168 0
0.703476 -2.77729 0
0.479219 -2.43391 0
0.211212 -0.470201 0
0.128556 -1.17883 0
-0.0399702 -0.559058 0
-0.394816 -0.401061 0
0.118305 -1.85811 0
-0.721458 -1.24717 0
