# vtk DataFile Version 2.0
Unstructured Grid by M++
ASCII
DATASET UNSTRUCTURED_GRID
POINTS 16641 float
  0.703125   0.781250 0
  0.632812   0.828125 0
  0.640625   0.835938 0
  0.640625   0.804688 0
  0.648438   0.812500 0
  0.625000   0.820312 0
  0.789062   0.929688 0
  0.796875   0.937500 0
  0.664062   0.945312 0
  0.664062   0.953125 0
  0.664062   0.968750 0
  0.671875   0.960938 0
  0.679688   0.960938 0
  0.679688   0.968750 0
  0.671875   0.953125 0
  0.914062   0.945312 0
  0.914062   0.968750 0
  0.914062   0.960938 0
  0.921875   0.968750 0
  0.929688   0.960938 0
  0.921875   0.945312 0
  0.921875   0.953125 0
  0.929688   0.953125 0
  0.820312   0.898438 0
  0.750000   0.945312 0
  0.570312   0.898438 0
  0.578125   0.898438 0
  0.585938   0.898438 0
  0.523438   0.953125 0
  0.585938   0.890625 0
  0.585938   0.882812 0
  0.515625   0.945312 0
  0.523438   0.945312 0
  0.515625   0.937500 0
  0.570312   0.890625 0
  0.578125   0.890625 0
  0.578125   0.882812 0
  0.570312   0.882812 0
  0.507812   0.937500 0
  0.507812   0.929688 0
  0.976562   0.882812 0
  0.992188   0.898438 0
  0.984375   0.890625 0
  0.968750   0.820312 0
  0.976562   0.828125 0
  0.992188   0.812500 0
  1.000000   0.820312 0
  0.656250   0.960938 0
  0.648438   0.953125 0
  0.640625   0.945312 0
  0.882812   0.968750 0
  0.882812   0.960938 0
  0.890625   0.968750 0
  0.906250   0.960938 0
  0.898438   0.953125 0
  0.906250   0.953125 0
  0.898438   0.945312 0
  0.906250   0.945312 0
  0.882812   0.953125 0
  0.890625   0.953125 0
  0.890625   0.945312 0
  0.882812   0.945312 0
  0.539062   0.695312 0
  0.539062   0.718750 0
  0.531250   0.710938 0
  0.554688   0.710938 0
  0.546875   0.703125 0
  0.570312   0.585938 0
  0.578125   0.585938 0
  0.585938   0.578125 0
  0.585938   0.570312 0
  0.570312   0.578125 0
  0.578125   0.570312 0
  0.757812   0.835938 0
  0.929688   0.968750 0
  0.960938   0.929688 0
  0.960938   0.921875 0
  0.953125   0.914062 0
  0.953125   0.921875 0
  0.601562   0.679688 0
  0.835938   0.976562 0
  0.898438   0.718750 0
  0.835938   0.968750 0
  0.593750   0.906250 0
  0.664062   0.914062 0
  0.601562   0.914062 0
  0.609375   0.921875 0
  0.679688   0.929688 0
  0.679688   0.937500 0
  0.796875   0.968750 0
  0.726562   0.945312 0
  0.742188   0.945312 0
  0.726562   0.890625 0
  0.734375   0.898438 0
  0.742188   0.960938 0
  0.734375   0.960938 0
  0.734375   0.953125 0
  0.726562   0.953125 0
  0.523438   0.820312 0
  0.523438   0.828125 0
  0.640625   0.953125 0
  0.984375   0.664062 0
  0.632812   0.953125 0
  0.921875   0.914062 0
  0.914062   0.906250 0
  0.671875   0.929688 0
  0.671875   0.921875 0
  0.664062   0.921875 0
  0.554688   0.945312 0
  0.914062   0.937500 0
  0.718750   0.882812 0
  0.507812   0.867188 0
  0.570312   0.617188 0
  0.742188   0.968750 0
  0.726562   0.976562 0
  0.726562   0.984375 0
  0.562500   0.898438 0
  0.734375   0.984375 0
  0.734375   0.992188 0
  0.742188   0.992188 0
  0.742188   1.000000 0
  0.742188   0.937500 0
  0.734375   0.937500 0
  0.734375   0.929688 0
  0.726562   0.921875 0
  0.726562   0.929688 0
  0.679688   0.843750 0
  0.921875   0.960938 0
  0.914062   0.953125 0
  0.687500   0.851562 0
  0.562500   0.984375 0
  0.554688   0.984375 0
  0.632812   0.937500 0
  0.625000   0.929688 0
  0.554688   0.921875 0
  0.585938   0.984375 0
  0.648438   0.929688 0
  0.656250   0.937500 0
  0.578125   0.914062 0
  0.585938   0.921875 0
  0.578125   0.921875 0
  0.906250   0.929688 0
  0.898438   0.929688 0
  0.898438   0.937500 0
  0.906250   0.937500 0
  0.554688   0.679688 0
  0.554688   0.687500 0
  0.554688   0.976562 0
  0.570312   0.914062 0
  0.570312   0.906250 0
  0.562500   0.906250 0
  0.531250   0.664062 0
  0.539062   0.664062 0
  0.804688   0.976562 0
  0.890625   0.937500 0
  0.890625   0.929688 0
  0.882812   0.921875 0
  0.875000   0.921875 0
  0.882812   0.937500 0
  0.882812   0.929688 0
  0.875000   0.929688 0
  0.546875   0.679688 0
  0.539062   0.671875 0
  0.531250   0.687500 0
  0.539062   0.617188 0
  0.546875   0.671875 0
  0.554688   0.601562 0
  0.742188   0.906250 0
  0.570312   0.968750 0
  0.578125   0.976562 0
  0.585938   0.976562 0
  0.578125   0.968750 0
  0.640625   0.921875 0
  0.828125   0.968750 0
  0.539062   0.929688 0
  0.890625   0.921875 0
  0.898438   0.921875 0
  0.906250   0.921875 0
  0.945312   1.000000 0
  0.945312   0.992188 0
  0.937500   0.992188 0
  0.953125   0.992188 0
  0.953125   1.000000 0
  0.960938   0.992188 0
  0.960938   1.000000 0
  0.710938   0.992188 0
  0.710938   1.000000 0
  0.718750   1.000000 0
  0.960938   0.984375 0
  0.960938   0.976562 0
  0.539062   0.703125 0
  0.718750   0.976562 0
  0.539062   0.875000 0
  0.695312   0.859375 0
  0.703125   0.867188 0
  0.937500   0.984375 0
  0.945312   0.984375 0
  0.953125   0.984375 0
  0.953125   0.976562 0
  0.937500   0.976562 0
  0.945312   0.976562 0
  0.687500   0.976562 0
  0.695312   0.976562 0
  0.882812   0.562500 0
  0.703125   1.000000 0
  0.703125   0.992188 0
  0.703125   0.984375 0
  0.695312   0.984375 0
  0.523438   0.835938 0
  0.867188   0.546875 0
  0.687500   0.984375 0
  0.695312   1.000000 0
  0.687500   0.992188 0
  0.687500   1.000000 0
  0.585938   0.648438 0
  0.523438   0.898438 0
  0.554688   0.898438 0
  0.835938   0.914062 0
  0.539062   0.882812 0
  0.882812   0.593750 0
  0.750000   0.921875 0
  0.820312   0.937500 0
  0.820312   0.929688 0
  0.914062   0.921875 0
  0.750000   0.773438 0
  0.914062   0.929688 0
  0.632812   0.960938 0
  0.843750   0.976562 0
  0.812500   0.523438 0
  0.843750   0.984375 0
  0.523438   0.632812 0
  0.703125   0.812500 0
  0.648438   0.960938 0
  0.992188   0.671875 0
  0.640625   0.960938 0
  0.929688   0.921875 0
  0.921875   0.921875 0
  0.757812   0.781250 0
  0.921875   0.929688 0
  0.921875   0.937500 0
  0.937500   0.929688 0
  0.929688   0.929688 0
  0.765625   0.757812 0
  0.695312   0.804688 0
  0.812500   0.953125 0
  0.648438   0.898438 0
  0.656250   0.906250 0
  0.820312   1.000000 0
  0.820312   0.992188 0
  0.820312   0.960938 0
  0.906250   0.898438 0
  0.554688   0.648438 0
  0.554688   0.656250 0
  0.578125   0.945312 0
  0.882812   0.734375 0
  0.820312   0.984375 0
  0.960938   0.640625 0
  0.828125   0.937500 0
  0.898438   0.890625 0
  0.554688   0.640625 0
  0.554688   0.632812 0
  0.570312   0.937500 0
  0.562500   0.929688 0
  0.632812   0.882812 0
  0.867188   0.718750 0
  0.875000   0.726562 0
  0.804688   0.968750 0
  0.812500   0.976562 0
  0.562500   0.875000 0
  0.804688   0.945312 0
  0.812500   0.945312 0
  0.953125   0.632812 0
  0.945312   0.625000 0
  0.890625   0.882812 0
  0.882812   0.875000 0
  0.546875   0.632812 0
  0.531250   0.632812 0
  0.539062   0.632812 0
  0.539062   0.625000 0
  0.546875   0.656250 0
  0.546875   0.648438 0
  0.546875   0.640625 0
  0.539062   0.640625 0
  0.531250   0.640625 0
  0.539062   0.656250 0
  0.539062   0.648438 0
  0.531250   0.648438 0
  0.531250   0.656250 0
  0.843750   0.921875 0
  0.835938   0.921875 0
  0.843750   0.929688 0
  0.609375   0.890625 0
  0.851562   0.992188 0
  0.726562   0.835938 0
  0.585938   0.656250 0
  0.585938   0.664062 0
  0.523438   0.906250 0
  0.796875   0.960938 0
  0.789062   0.960938 0
  0.609375   0.648438 0
  0.601562   0.640625 0
  0.601562   0.648438 0
  0.593750   0.648438 0
  0.546875   0.898438 0
  0.539062   0.890625 0
  0.750000   0.914062 0
  0.539062   0.898438 0
  0.531250   0.898438 0
  0.828125   0.976562 0
  0.664062   0.828125 0
  0.726562   0.578125 0
  0.601562   0.882812 0
  0.593750   0.875000 0
  0.734375   0.585938 0
  0.890625   0.742188 0
  0.742188   0.593750 0
  0.671875   0.835938 0
  0.835938   0.984375 0
  0.828125   0.984375 0
  0.828125   0.992188 0
  0.828125   1.000000 0
  0.843750   0.992188 0
  0.835938   0.992188 0
  0.835938   1.000000 0
  0.843750   1.000000 0
  0.570312   0.742188 0
  0.562500   0.742188 0
  0.507812   1.000000 0
  0.546875   0.664062 0
  0.898438   0.804688 0
  0.554688   0.671875 0
  0.890625   0.960938 0
  0.554688   0.664062 0
  0.757812   0.960938 0
  0.507812   0.960938 0
  0.578125   0.648438 0
  0.570312   0.648438 0
  0.562500   0.648438 0
  0.515625   0.898438 0
  0.507812   0.898438 0
  0.523438   0.765625 0
  0.585938   0.515625 0
  0.875000   0.960938 0
  0.898438   0.960938 0
  0.734375   0.812500 0
  0.898438   0.968750 0
  0.750000   0.828125 0
  0.906250   0.968750 0
  0.742188   0.820312 0
  0.507812   0.992188 0
  0.851562   0.703125 0
  0.789062   0.953125 0
  0.867188   0.773438 0
  0.710938   0.593750 0
  0.812500   0.984375 0
  0.812500   0.992188 0
  0.804688   1.000000 0
  0.570312   0.960938 0
  0.562500   0.960938 0
  0.562500   0.953125 0
  0.554688   0.953125 0
  0.640625   0.890625 0
  0.617188   0.742188 0
  0.796875   1.000000 0
  0.796875   0.992188 0
  0.789062   0.992188 0
  0.609375   0.742188 0
  0.687500   0.570312 0
  0.789062   0.984375 0
  0.601562   0.734375 0
  0.593750   0.726562 0
  0.601562   0.726562 0
  0.539062   0.976562 0
  0.867188   0.804688 0
  0.750000   0.953125 0
  0.757812   0.953125 0
  0.570312   0.703125 0
  0.562500   0.695312 0
  0.570312   0.695312 0
  0.687500   0.945312 0
  0.695312   0.945312 0
  0.773438   0.945312 0
  0.781250   0.945312 0
  0.695312   0.921875 0
  0.703125   0.921875 0
  0.585938   0.640625 0
  0.593750   0.640625 0
  0.585938   0.632812 0
  0.593750   0.632812 0
  0.523438   0.890625 0
  0.531250   0.890625 0
  0.523438   0.882812 0
  0.531250   0.882812 0
  0.781250   0.953125 0
  0.765625   0.960938 0
  0.578125   0.703125 0
  0.578125   0.710938 0
  0.585938   0.710938 0
  0.585938   0.718750 0
  0.851562   0.789062 0
  0.710938   0.960938 0
  0.710938   0.968750 0
  0.718750   0.968750 0
  0.562500   0.734375 0
  0.570312   0.734375 0
  0.570312   0.726562 0
  0.562500   0.718750 0
  0.843750   0.695312 0
  0.507812   0.984375 0
  0.578125   0.734375 0
  0.578125   0.742188 0
  0.585938   0.742188 0
[...]
CELL_DATA 16384
SCALARS scalar_value float 1
LOOKUP_TABLE default
2.66264
3.45717
5.82577
3.25688
4.03699
5.09315
4.27693
3.82455
3.65959
5.30951
7.73054
4.09216
713.359
962.46
2164.22
1470.18
588.568
688.858
478.162
266.354
1963.68
1330.16
632.38
753.913
3921.8
2607.1
4283.54
4576.92
166.556
127.533
253.225
321.418
135.975
142.628
122.256
102.272
303.033
284.804
238.725
225.709
239.498
231.98
280.123
252.327
225.655
185.359
232.588
469.482
159.498
116.223
87.4283
123.601
106.231
115.266
128.43
126.294
59.8602
77.8715
3441.34
1211.11
1179.04
2175
1579.34
1291.76
2442.27
1645.58
547.407
800.73
511.752
337.89
686.795
723.472
567.91
458.473
491.575
531.949
565.251
668.055
163.388
405.42
298.027
199.078
358.408
454.961
362.356
406.677
612.667
430.794
436.553
371.164
1.17574
0.28413
0.169182
0.0784721
0.0675402
0.0889526
0.101683
64.1449
8.1866
56.4293
0.110227
0.0700964
0.100204
0.177436
13.4602
13.693
82.5964
0.0436786
0.0747236
0.0998207
0.0483745
1.96637
0.0627923
0.0678216
0.0394476
0.0390429
2997.41
6592.93
3455.22
4469.2
6457.01
1476.36
4666.06
7397.85
5612.4
2997.16
7268.57
4966.65
4485.1
0.256775
0.351396
0.274009
0.169624
1.56455
0.579319
0.621791
1.11385
0.918994
0.928102
1.48575
0.325027
0.459349
0.474247
0.315899
0.112721
0.244792
0.546358
0.0773575
0.0979146
0.0519009
0.0295199
0.398695
0.245481
0.197012
0.281794
1.06744
0.531588
0.585229
0.20001
28.2135
10.4311
17.7214
0.0313427
0.0853266
0.109222
70.168
111.717
91.3954
0.020826
11.1025
28.445
17.788
0.312584
0.208475
0.557165
13.0965
0.0837091
0.119134
0.177769
0.112789
0.0914769
0.15569
0.0804024
0.0688015
0.08143
0.166619
0.0678273
0.0506436
0.386033
0.2064
0.308333
0.736425
3.96361
2.26198
0.797932
1.49732
1.18376
0.617534
4.15835
3.54195
3.67963
0.969423
1.24374
0.710243
0.565078
6.31312
2.30749
1.22254
1.53936
4.42587
4.86487
5.7139
0.202496
0.294312
0.176081
1.22651
1.58972
2.48028
2.47419
16.2426
16.6446
12.8217
66.906
70.0643
16.5607
10.0172
8.99468
11.1585
3.5213
8.66036
3.15566
10.7846
9.47848
10.0082
56.8903
26.9909
25.1871
66.1422
5.20567
5.46801
10.9004
4.82388
3.01852
3.53583
1.58188
1.79822
4.1424
3.35043
2.95725
2.43169
5.39186
4.75518
8.45414
16.4821
16.0416
1.31433
4.51733
3.11549
27.8793
10.5126
14.9367
20.5376
15.1932
18.7961
24.6617
44.8145
13.0368
26.9134
0.884376
0.828612
0.529879
0.441843
2.00908
0.984052
1.62667
2.64675
1.2415
1.03079
1.77111
1.30947
0.513796
0.875019
0.830286
0.574669
0.0183653
0.00727758
0.00910974
60.1048
0.00326599
0.004538
303.015
0.0174264
5.51824
0.768376
15.2779
0.235528
0.0311591
183.988
0.0107181
149.951
0.0448903
87.5579
6.60349
178.985
93.6919
119.686
112.236
1.17524
0.230039
0.625856
0.126346
0.991566
0.0493297
1.60796
0.00968592
0.0752529
1.26688
1.99955
0.0810735
1.20212
0.147136
4.68273
0.0250831
0.0286478
12.1499
0.00533657
0.0299188
0.0273618
0.0360763
203.547
77.6494
0.000397364
0.00501052
0.930125
0.00587448
8828.57
0.993324
13.0338
0.00342552
0.00771792
0.899392
171.033
232.851
259.455
0.0222136
115.247
0.0254288
24.5115
0.00295547
114.394
8.3782
0.0108113
7.96582
0.0120927
15.3262
0.69739
3260.76
0.0560012
0.0369081
291.365
5.64036
0.0249612
0.00149555
18.59
0.00944488
16.1288
11.8766
0.00570914
1.3605
1.60133
0.573504
3.1077
0.166934
0.0103467
11.9127
2.33247
12.6235
100.035
267.029
15.5416
5.02122
0.419739
2998.06
0.0880744
1.85932
0.171024
1.28223
0.143698
1.82761
0.166107
0.362194
0.813988
6.04441
0.0663045
2.01117
0.0331001
0.0985618
0.425418
0.0441309
0.774137
9.80487
0.00639897
5.70739
0.0123354
0.00791882
0.0058139
0.00415702
0.00620879
18.2254
0.0157192
0.560907
0.757116
0.698314
1.35691
0.225375
0.00687829
44.431
0.00266153
0.00278451
146.312
0.00160729
0.00212313
0.0102662
0.00321449
0.00232581
0.00243824
28.2387
1.5419
3.01528
0.228599
0.0965234
1.68415
0.0771231
0.0276704
3.64171
1.86721
0.05839
3.7994
0.0946688
4.72807
0.0189888
2.09813
0.0699215
1.61894
1.45924
0.106856
0.210127
0.0147083
0.0798629
648.837
471.486
0.00402916
531.42
0.00719322
662.881
0.0161297
5.22158
2000.4
5.09155
1896.83
1565.75
214.412
0.00842914
0.00412875
220.91
835.333
453.558
0.00295562
463.613
0.00189498
513.259
0.0024356
768.609
13.4039
0.742531
0.288778
12.056
0.0408252
10.444
0.12648
8.89515
0.052156
14.8278
13.7466
13.7989
10.4447
0.0586091
36.5912
0.00630236
6.81222
0.305776
14.2852
0.171586
9.97509
0.00367143
0.257119
0.000708513
0.000657575
47.1589
0.000701332
105.135
0.374446
0.261092
0.370732
0.00150436
0.0301243
0.287152
0.000719808
185.693
0.000626818
151.253
0.000790878
66.102
0.00748071
0.0152393
7.95337
0.0247094
2.64644
0.000559388
0.045978
0.00120257
0.0708855
0.00102434
0.0596238
0.0139057
23.3181
0.0200223
10.1195
0.00339428
0.000640752
44.9356
0.242812
1.60057
0.00269769
0.0021445
0.00482104
4.21908
0.00171417
0.00154316
0.00170772
0.00125307
0.00207395
127.052
1.86472
103.751
0.00323549
0.00281815
0.00473674
0.53415
0.0152633
0.00064894
4.2516
11.347
0.929359
4.36147
0.711821
23.074
63.4109
0.727642
0.0196003
4.98741
2868.36
0.0106751
0.00154158
0.0200287
1.5586
0.118817
41.339
0.0983548
1.83513
40.7941
0.0527054
74.47
50.2443
74.472
0.0383186
2.29568
31.8413
38.724
0.153527
0.625181
0.32682
0.397219
5.28067
11.4009
0.00184598
643.131
1.30925
0.351618
0.786097
0.354661
537.811
0.070311
430.077
6.43478
2.19456
2055.47
2.42089
0.130491
51.1313
1041.1
268.08
184.825
74.0997
5.10766
0.0624147
20.1295
0.00329035
242.512
68.9876
0.21207
7.70414
0.327421
1.04743
6.67375
3.22349
1.39726
0.0183571
3.4601
71.8142
0.0224842
0.000836634
81.4092
0.0898149
2.92321
0.0335223
80.9804
0.0311818
0.0310024
0.00294156
0.095987
41.9995
0.0289087
3.42692
43.8191
0.00248989
57.3229
0.00157343
10127.2
114113
120091
0.00217876
0.0337715
0.00329986
0.00440276
722.463
0.00234872
505.306
2.17539
0.0304409
0.0281791
0.045031
0.0755164
11.1955
0.0790112
4.49029
26499
5.82328
0.157676
10988.6
0.00548634
0.286583
0.00436048
581.758
0.00628194
0.523167
0.00756589
0.6065
113087
70981.6
0.000402184
0.00927712
0.00713244
0.00597931
0.18284
0.0120068
0.0247111
1974.74
1.16834
0.0538164
34.2963
0.0307703
0.220678
0.0770588
171.12
2226.82
1.32088
1172.96
1.59846
0.317104
0.000756437
1279.09
1.50372
24.3847
0.1476
0.114708
0.0350952
0.090772
0.0510294
0.030288
3.40958
685.955
2.6165
139.863
0.209948
5.68852
0.596321
0.0460636
0.0252939
148.38
0.0170895
3.27693
0.000621805
4.03607
111.58
2.30855
34.4388
0.105324
0.927045
0.0433274
0.246728
0.0756004
0.00075305
0.0318443
146.973
0.000662208
0.0477649
0.0586158
12.2626
0.0482247
0.0348309
144.835
0.0447443
352.172
0.271004
0.376357
0.72212
0.124366
9.24407
0.108334
0.000456498
0.0559329
0.000568136
0.0467668
95.6119
0.0836999
0.0431575
0.0467309
3.53796
0.133131
119.276
0.000755208
0.0551287
98.9246
135.632
0.000685344
86.5241
0.0414188
4.92521
0.033825
3.1556
0.032109
104.548
0.000438639
300.476
81.4164
0.0446074
41.1964
0.0704119
0.08318
10.6322
2.09507
6.19016
2377
122.625
1.70045
50.9098
33.6913
0.0451993
0.00168636
21.4011
0.001003
0.0499969
0.00131281
15.2942
0.0017394
0.00128968
0.0307533
0.000934816
0.0407761
0.000939919
0.00179958
0.028942
0.00128878
0.0246383
4.41554
0.0409951
0.0346332
0.0151649
23.5075
0.00205712
0.0156799
6.4461
0.0185176
9.36699
0.00447819
0.0202066
5.44919
0.00388929
0.00549816
0.00223469
30.3608
15.5909
0.0125608
23.4687
0.0934694
9.42611
7.16944
0.124624
35.0825
8.95414
0.0108742
28.5898
0.408989
0.25802
116.077
5.73208
4.61272
13.8164
0.00230897
398.183
0.000679018
0.043757
446.092
185.388
0.00136911
643.379
5.55476
0.0275799
46.5384
64.1325
16.1528
0.00652219
11.9283
0.0172186
57.2957
0.014184
67.8936
114.288
55.1139
6.39439
0.0327343
26.2129
0.0232088
11.5054
0.00663416
15.142
0.00764398
8.77619
0.0174371
9.67113
1.23715
3.64324
120.505
2.59004
5.59463
350.274
1.61647
0.832515
0.260827
1.98657
0.160354
39.2894
0.0243829
1.5546
0.138783
33.15
1.9201
0.726637
0.607698
0.000850439
1.63801
0.00895826
107.175
0.0542004
0.0416738
107.104
765191
0.047963
6.38072
0.0875053
100.898
49.5936
0.18518
2.20146
349431
0.0199762
11.9031
0.0284219
29.5319
121.645
1.40766
0.0515837
0.0474621
12.0148
0.0418297
268.261
0.00131367
706.004
0.00272511
1113.63
0.0041702
1980.74
0.00136762
0.0221149
0.00728892
2436.12
0.00438635
0.0754392
0.00559626
0.109386
0.0118435
0.0898243
0.462936
0.25852
10.4952
0.752374
0.0326166
63.5229
0.00066796
83.6368
0.000600959
0.0604818
0.00138401
0.00333777
1281.1
0.00366486
0.083658
0.0022638
252.706
0.00221486
133.194
0.139155
0.00187034
0.07322
0.00217883
0.0872997
0.00136269
0.0737489
69.7675
0.00161311
0.026829
0.001058
0.00402769
60.3118
0.161129
0.041367
73.7986
0.000999375
0.0959112
47.1093
0.058706
0.000527372
255.756
95.2982
0.000621505
0.0391429
0.000876486
223.679
4.13836
862.829
5.65988
0.0328145
59.0786
24.3111
27.4638
0.0454776
16.4039
13.9101
0.00742963
10.7333
8.49706
0.015861
20.2809
0.016455
103.352
10.6303
0.0127153
69.753
1.93566
19.7331
0.0156807
0.00661081
2.93342
14.8729
510.214
43.8198
568.53
11.0751
46.8688
0.00235746
1.57319
39.4435
91.4779
55.5329
0.0132045
3.8823
0.0247118
5.83115
0.0719504
45.7933
0.00614353
27.0301
0.545049
47.0334
0.0268008
16.3032
70.3106
0.0594437
18.3848
0.22012
82.0211
0.0299814
32.4187
0.0183792
47.3798
0.0248651
15.7982
36.7666
38.1899
0.0238733
1697.47
0.105378
0.285892
0.237262
18.0542
32.1784
0.0438362
23.8696
0.0754567
16.6829
0.128628
240.163
0.0280802
1830.82
4.17554
0.000926644
0.0315564
0.000840685
0.0363504
0.00178558
0.0309534
51.8315
0.014965
0.00348513
27.2979
0.000639131
286.053
0.00140624
632.421
0.00135349
0.0838179
37.468
0.365967
0.0130546
0.0105043
0.00865711
0.0108391
0.0198561
0.0355462
0.0246685
0.370229
30.5119
40.9186
0.0335479
6.43932
0.0801776
22.5241
10.1287
0.0219642
57.4979
0.46237
6.42667
52.9434
7.57719
0.0329224
36.3602
0.0241864
0.0359345
68.1432
6.65702
1.07339
5.63316
0.452853
3089.51
0.00218178
0.0105919
637.87
0.726836
8154.47
0.0015192
0.00370617
1312.13
953.428
0.00412936
3172.42
1334.73
0.0115359
0.0201719
0.0239104
5.11661
1154.69
0.00399751
0.0165104
0.0437053
8.90723
59.8796
1305.47
0.0403915
2.36223
1.58607
6.60494
76.2061
0.0596605
1305.95
0.0110777
0.0245565
0.0567412
0.617617
76.3107
0.590436
0.00790248
14.0735
2034.35
1042.4
8.85186
0.918024
0.0905228
0.0170129
447.828
0.994858
6.55499
0.382382
0.102963
538.277
5.31182
0.370845
0.144563
0.624776
1.83709
6.12568
0.126772
0.0447092
0.0385897
0.318575
0.023614
0.00894983
467.263
0.00344675
0.536239
0.00281153
5.13013
3.73535
62.0325
8.49668
21719.2
0.0770475
0.0430252
0.00892148
0.0161305
22.562
453.945
1.02051
0.0948469
0.00755793
0.1086
2.85984
0.0441912
0.146413
0.28743
0.178898
1.08556
0.00607228
0.0478897
0.0307972
0.000910314
7790.9
0.0027773
0.0110951
28.1929
409.448
35.6488
0.813134
0.0465349
0.0349097
0.000938597
0.017739
12.2497
31.3089
0.00705572
7.24521
1.1782
0.200686
12.4086
0.204381
0.0144138
0.00248333
1.13636
0.0532553
383.012
406.334
0.161199
0.00185438
256.345
0.030745
2.36602
0.981195
4.63609
0.0579156
0.0322802
78.9338
6.31987
0.0509764
0.00325556
5.82247
0.72439
12.5348
0.332285
0.0688608
0.00779348
0.023553
5.96172
14.4367
14.505
383.008
7.04234
0.171193
0.0425007
1.44803
6.00978
8.19433
20.2316
0.0845929
3.50283
0.150214
6.76669
15.0656
0.00756741
29.0487
0.00872882
0.243868
0.00167258
35.38
2.76517
0.0505398
2.60488
0.462324
0.0674496
32.0275
0.0040603
10.8705
0.00854324
134.908
0.0800217
10.3471
19.4035
0.00122054
118.894
263.76
0.224349
1.48938
0.129542
11.103
0.0720506
0.00125181
0.0454464
19.3094
0.00676581
13.3326
0.0324196
14.4077
0.0643381
4.9617
0.00637796
0.00987172
610.057
0.625339
0.0565143
0.0252039
5.8947
13.2666
12.7371
169907
0.299037
11.265
13.1115
252.638
5.10446
7.03725
0.0891299
0.0485921
0.849751
0.416394
46.728
8.17143
0.0404136
5.11716
0.0509979
0.0266974
352.73
0.0128404
0.0307258
0.0728848
1.24596
1.91613
80.9019
6.75458
8133.45
0.0282036
0.0726029
0.0252343
2.66226
0.0354022
5.27264
9.85752
0.0240382
11.0431
0.0865901
35.7425
0.000966435
102.947
274.286
0.107424
0.0374485
0.00468846
0.0185669
0.0437043
2.59641
303.966
288.312
0.916724
0.0830135
0.106947
2.05129
0.103126
1.54421
0.0337595
10.079
2.35686
0.101076
0.199684
0.32001
44.0922
0.314216
0.0230762
203309
41.4051
2023.3
1.6115
0.00712193
1.06482
0.111327
6.03292
0.0266415
1.16873
1.73366
6.8803
0.0275581
77.422
3.54326
0.11849
2.27122
0.00122343
2.69389
3.75605
0.0515448
0.938013
539.655
0.0180739
1.66529
5.8793
149.628
0.365684
0.013964
2.27327
1.8658
0.0499642
0.453129
0.0231951
25.8358
3.6773
3.84066
2.45905
1.30683
1.13091
0.280283
0.719909
0.252539
3.9023
1.23521
2195.45
0.0686267
8.40485
0.232844
1.10297
0.0167007
13.1658
0.0175661
4.34889
0.0842888
0.784584
0.0463518
107.501
7.40519
213084
18.5577
1077.26
2.3572
0.0348252
93.1635
15.9798
0.310803
4.05302
10.1948
3.12063
1.97287
0.0636077
1.4935
0.149655
1.11195
2.10452
0.0355707
5.99082
1.41953
0.155249
105.1
7.09235
5.94585
0.838572
1.41981
0.734194
2.31901
0.00297021
2.33215
1.12688
0.0238591
0.14324
18.2851
0.881388
0.752633
0.414292
0.0471973
159.17
5.41624
0.608439
1.8371
0.757061
1.6142
1.59407
6.50079
0.0581662
0.00161314
1.27672
123.287
0.0691812
0.00247573
0.0852122
0.00186061
1.15342
398.243
4.27205
2.02145
0.0152851
61.8695
0.0592881
26.7979
0.00149737
2.1378
0.0263471
467.615
1.97354
13.0532
31.6871
0.00663759
0.101886
438.856
5.22253
1.14934
0.0351044
17.9494
0.073257
16.6776
0.00208582
118.222
0.00113675
1.66506
4663.37
8.68921
1.26224
9.9632
18.8086
0.0894552
0.0602416
7.8127
39.7754
0.696009
0.334233
0.00146018
4280.99
19.9823
4741.87
0.0846047
38.6996
6.5575
15.3645
1.55441
0.979495
0.0243352
1.2936
0.00227808
17.1846
0.00161462
541.972
0.89042
0.0420765
0.797536
2.36567
0.0631154
0.000530156
1.93286
0.00109294
1.35965
0.0823839
12.0575
0.117288
0.0344455
0.938733
0.0256457
378.709
0.201216
34.0495
3.53202
0.494668
0.0195024
24.7973
20.2822
0.00939528
1.35375
0.0569851
0.0292894
1966.04
4.07809
156.077
2.11095
0.496104
0.0393787
0.898807
20.9529
0.0124523
301.443
0.0575509
28.303
0.0132241
0.0903791
1.903
0.0490883
333.983
0.00103693
7.62752
0.0449254
0.00222555
1.39166
0.0780602
0.433008
0.0438172
1.01847
0.0335182
484.18
127.983
0.0011501
1.53646
1911.32
0.737576
0.00744513
27.6938
0.000522975
0.529207
0.70815
533.784
70.8866
0.137128
7.02705
0.0407341
2570.86
4.23548
0.00119129
2.15245
0.131929
0.660451
0.0844776
0.783104
145.791
0.000928065
2239.53
0.782499
503.834
288.803
0.106477
12.9297
2187.95
0.0257854
75122
410.265
39.2222
0.00636195
0.00598098
1977.06
0.0111079
0.0890747
0.183608
0.78581
0.00350335
0.0639289
612.869
501.424
1.24881
0.166474
74.8764
0.00617966
289.232
0.062575
26.472
206.038
1.95941
0.0912703
1832.6
4086.31
2.60953
40.1876
0.0203188
0.00117502
2.21561
0.12343
36.7601
3.48091
3.45893
0.419903
0.08139
4.66008
68.6974
0.106594
124.04
0.000911258
0.359024
99.3415
0.00977581
0.326837
0.00651896
1512.32
0.0625906
400.98
121.703
0.00340878
162.133
0.000962968
5464.71
86.1018
59.1446
0.0216574
0.0285031
92.7678
0.175458
0.665646
4.87478
2.40366
0.754693
827.806
67.102
0.00125235
102.756
1517.72
48.8634
0.00110468
0.0579217
1135.43
4.81132
0.0181249
0.0600869
968.795
0.00653227
336.13
0.00160417
10191.9
400.899
0.038693
218.714
0.518742
2301.16
7.49472
40.8298
1.03843
0.261594
83.0601
0.00159737
647.689
0.0241986
1585.01
297.869
94.2481
0.00385413
70.2962
0.00269128
30.1432
0.258243
0.0176958
1135.32
218.176
6.93579
142.42
99.5524
0.011034
0.0559592
158.62
1.11594
0.10769
92.125
0.00270243
0.157447
697.76
1348
0.416104
0.459576
0.01189
1227.83
37.1511
5.19284
0.0115646
1004.64
43.8027
88.3616
11.5075
0.357901
18.7565
83.125
0.000836083
3.73955
0.0304374
69.662
0.108029
0.0267135
2.65639
3.48468
0.010478
0.561151
220.108
5.65545
3.35375
0.180996
2070.86
74187.7
46.2749
24.6253
126.95
0.00124469
0.042787
15.0863
4.36045
0.160007
0.644025
0.0559681
109.977
616.204
0.0206536
253.463
8.00952
0.0168151
135.684
0.0268843
308.576
8.63033
3.38318
0.195781
11.6743
0.0021149
28.4562
0.015914
114.421
0.942036
7.7845
24.8162
157.534
0.00161574
0.0286252
5.42557
3.44684
0.101585
1.05522
0.113647
0.0220115
152.885
4.18842
1.84439
0.131852
0.00264194
1508.17
28.0466
0.35059
1.328
13.783
103.014
0.00173115
0.0285866
3.22994
3.71604
0.0740564
0.00497771
9.89605
0.32078
2484.01
4122.06
551.99
18.4765
0.459139
2453
0.0264394
87.708
0.00065465
2.07627
0.109191
82.6599
0.445376
9.19731
0.00974685
3.15467
0.0419698
0.397677
1.14199
0.10844
0.705349
2.53633
1468.5
0.00225218
60.02
66.884
0.00418944
1201.52
454.726
13072.8
0.373206
941.295
2.05609
0.0500797
78.4969
0.0014886
310.204
0.0239186
139.192
0.164432
0.00509869
0.119161
2027.71
1193.01
8.56972
175.625
1958.81
9.44246
0.0147434
44.8085
0.0228015
2.3083
0.324722
848.075
1.53182
0.177516
0.00121694
1.6907
125.141
0.184532
0.0497445
47.4088
0.344725
92.0866
17.6494
0.960202
0.511963
0.000877406
0.000809008
23859.2
1.74245
1.28846
7140.63
0.584536
1063.58
193.335
110.646
374.878
14.6364
16.0257
0.0429997
2.17253
0.3439
0.00124922
247.274
117.578
0.416865
0.194401
166.045
0.34073
0.000731118
68.1079
0.697031
1.24779
0.583449
1.74966
0.220442
0.0378769
2431.07
0.0380531
21068.8
198.368
0.143288
27.7206
0.0141496
87.1116
0.617094
0.000805217
69.9561
0.138296
156.37
338.027
21.1824
7456.74
0.0543788
0.193947
0.00704474
0.863269
0.0114494
283.495
0.0644349
126.795
0.0301162
0.124258
1.73795
11.3969
0.00265755
0.0859202
282.528
0.512705
0.442377
0.065182
76.7746
0.0247294
1608.08
0.0347039
7062.48
0.0137018
34.834
4.99668
129.663
0.119769
1423.98
0.0216964
248.196
0.017815
4.84138
0.0637209
94.3387
0.217415
0.540897
0.0105612
1620.33
0.0135806
154.697
1.32034
0.0325089
15.6884
3.16479
4.81701
0.383142
0.208285
0.0161402
1.54697
1315.81
19454.9
0.0035383
44.1805
0.233086
0.32563
0.103501
0.0148043
2.44298
2.52913
0.52516
0.017399
3.45542
0.0447119
39.1646
0.0192107
26.9486
4.86654
74.5603
12.9585
4.25295
0.642877
0.951598
0.0392319
0.00759752
0.00675191
0.565634
0.00794287
0.00200345
0.00123811
0.00453531
0.352796
0.831197
0.227904
0.411158
0.375768
0.764461
0.583707
0.197525
0.123701
1.47632
17.3647
0.324303
0.487336
0.0373611
0.0174248
0.0556981
2.57979
14.3861
0.696447
36084.1
0.0247358
0.0288328
0.0623759
0.00197
159.712
1.02104
11.525
0.00604321
0.00161814
245.901
1.88675
7.98278
0.00594639
0.00256789
0.758063
7.56054
0.00356163
0.00300454
1.233
4.23722
0.00535392
0.0042997
0.00427043
0.00471976
0.0044502
0.273912
0.0650831
0.11657
0.136023
0.087882
28.3135
3.44292
0.453792
9.64487
0.844717
0.121757
0.0200794
0.0605444
42.1102
20.7521
10.3461
0.412484
6.34696
1.23285
29.736
0.0449178
0.0226118
0.0560442
0.0579547
27.718
11.9571
22.3432
85.3392
20.6873
112.029
27.8958
0.17476
676900
45.2649
0.242507
69.5387
106.743
494822
0.163101
570126
151.267
37.5848
691280
64.9801
43.503
29.5102
5.04556
20.6334
19.6237
0.13103
0.527668
1542.37
0.00250933
0.283194
0.10012
1223.73
1903.5
4.60152
2.18053
0.14635
0.0169797
0.0353754
0.0381258
7.39704
0.225365
0.0495964
3.76271
0.101909
0.367056
0.0741855
212.645
195.692
1.40038
0.182328
237.039
0.331524
126.417
0.410905
0.00525946
1081.79
0.00741158
142.565
0.799693
0.064765
726.822
0.0160095
306.509
1.82087
0.458391
461.341
0.0124384
81.5092
0.38423
0.0540896
116.617
10.2751
0.527961
0.121964
93.3212
1342.94
1.66148
481.828
4026.75
4147.51
461.573
1.40409
25692.4
24489
292.707
72771.3
113968
368.923
34009.2
3.44061
655.095
3845.16
0.456005
1941.55
1.5183
0.00122943
7903.57
0.453728
185.302
2288.57
0.341744
225.186
31.8451
14.6061
0.0812057
843879
129.525
0.863542
13.3245
0.0100432
13.57
170.269
1.26501
15.9867
0.00939002
8.73046
277.727
1.79194
5.54875
0.0136009
3.65039
7220.44
0.743252
0.00614522
157451
190.506
246256
626259
430784
446.141
542948
1.366
0.0562966
202.605
0.0916571
1.90725e+06
3.09122
0.128796
0.318171
0.0914629
2.19122e+06
2.4419
0.0950955
124.6
10.1084
0.00373362
0.256896
8.08162
1.01722e+06
1.13627
0.151248
0.15342
0.0287495
0.399099
748.146
451.263
14.5635
2347.72
45.9797
1.54614
1709.36
2168.08
0.381043
59.0779
2.11869
2200.05
0.273342
2104.3
4.42948
95.4021
3212.74
0.446017
2434.49
30.2873
2007.47
1015.17
412164
627.274
3.89454
782.429
2.93895
0.178088
0.684052
0.00109527
1.68417
745.094
1.49174