# vtk DataFile Version 2.0
Unstructured Grid by M++
ASCII
DATASET UNSTRUCTURED_GRID
POINTS 15808 float
  0.804688   0.710938 0
  0.804688   0.742188 0
  0.882812   0.984375 0
  0.812500   0.937500 0
  0.796875   0.984375 0
  0.875000   0.726562 0
  0.804688   0.656250 0
  0.945312   0.625000 0
  0.867188   0.828125 0
  0.773438   0.984375 0
  0.953125   0.546875 0
  0.781250   0.984375 0
  0.781250   0.976562 0
  0.976562   0.882812 0
  0.906250   0.945312 0
  0.953125   0.632812 0
  0.828125   0.734375 0
  0.937500   0.562500 0
  0.757812   1.000000 0
  1.000000   0.539062 0
  0.820312   0.976562 0
  0.953125   0.773438 0
  0.773438   0.937500 0
  0.828125   0.929688 0
  0.789062   0.937500 0
  0.835938   0.937500 0
  0.898438   0.750000 0
  0.921875   0.773438 0
  0.984375   0.523438 0
  0.804688   0.960938 0
  0.859375   0.960938 0
  0.765625   0.617188 0
  0.820312   0.945312 0
  0.804688   0.992188 0
  0.914062   0.921875 0
  0.835938   0.546875 0
  0.929688   0.945312 0
  0.953125   0.992188 0
  0.828125   0.507812 0
  0.859375   0.625000 0
  0.796875   0.734375 0
  0.789062   0.726562 0
  0.789062   0.781250 0
  0.953125   0.929688 0
  0.851562   0.531250 0
  0.757812   0.750000 0
  0.867188   0.578125 0
  0.812500   0.976562 0
  0.929688   1.000000 0
  0.773438   0.710938 0
  0.953125   0.804688 0
  0.867188   0.546875 0
  0.898438   1.000000 0
  0.906250   0.992188 0
  0.937500   0.953125 0
  0.929688   0.953125 0
  0.773438   0.796875 0
  0.937500   0.945312 0
  0.929688   0.937500 0
  0.765625   0.789062 0
  0.757812   0.945312 0
  0.968750   0.648438 0
  0.773438   0.851562 0
  0.937500   1.000000 0
  0.851562   0.703125 0
  0.789062   0.945312 0
  0.968750   0.507812 0
  0.804688   0.984375 0
  0.765625   0.953125 0
  0.859375   0.539062 0
  0.914062   0.593750 0
  0.851562   0.835938 0
  0.789062   0.812500 0
  0.953125   0.960938 0
  0.851562   0.562500 0
  0.781250   0.804688 0
  0.945312   0.953125 0
  0.765625   1.000000 0
  0.757812   0.992188 0
  0.765625   0.992188 0
  0.812500   0.750000 0
  1.000000   0.929688 0
  0.835938   0.687500 0
  0.812500   1.000000 0
  0.914062   0.960938 0
  0.921875   0.960938 0
  0.921875   0.953125 0
  0.781250   0.859375 0
  1.000000   0.765625 0
  0.890625   0.742188 0
  0.992188   0.812500 0
  0.898438   0.953125 0
  0.796875   0.953125 0
  0.976562   0.515625 0
  0.906250   1.000000 0
  0.914062   1.000000 0
  0.914062   0.992188 0
  0.984375   0.804688 0
  0.984375   0.664062 0
  0.812500   0.523438 0
  0.859375   0.929688 0
  0.867188   0.921875 0
  0.898438   0.664062 0
  0.867188   1.000000 0
  0.875000   1.000000 0
  0.867188   0.992188 0
  0.875000   0.992188 0
  1.000000   0.953125 0
  0.835938   0.804688 0
  0.937500   0.789062 0
  0.906250   0.671875 0
  0.914062   0.679688 0
  0.945312   0.937500 0
  0.851562   0.921875 0
  0.945312   0.539062 0
  0.765625   0.976562 0
  0.937500   0.531250 0
  0.757812   0.968750 0
  0.828125   0.679688 0
  0.820312   0.968750 0
  0.812500   0.968750 0
  0.992188   0.531250 0
  0.921875   0.976562 0
  0.773438   0.976562 0
  0.773438   0.625000 0
  0.843750   0.945312 0
  0.929688   0.781250 0
  0.914062   0.984375 0
  0.828125   0.953125 0
  0.890625   0.710938 0
  0.835938   0.968750 0
  0.835938   0.960938 0
  0.828125   0.968750 0
  0.898438   0.718750 0
  0.929688   0.976562 0
  0.875000   0.976562 0
  0.757812   0.937500 0
  0.929688   0.500000 0
  0.929688   0.960938 0
  0.773438   0.765625 0
  0.835938   0.515625 0
  0.968750   0.984375 0
  0.960938   0.781250 0
  0.906250   0.960938 0
  0.906250   0.953125 0
  0.898438   0.968750 0
  0.898438   0.960938 0
  0.968750   0.703125 0
  0.796875   0.562500 0
  0.851562   0.976562 0
  0.851562   0.968750 0
  0.781250   0.687500 0
  0.890625   0.992188 0
  0.796875   0.593750 0
  0.890625   0.796875 0
  0.789062   0.976562 0
  0.968750   0.476562 0
  0.960938   0.468750 0
  0.890625   0.968750 0
  0.890625   0.960938 0
  0.953125   0.718750 0
  0.898438   0.804688 0
  1.000000   0.820312 0
  0.968750   0.562500 0
  0.789062   1.000000 0
  0.960938   0.554688 0
  0.781250   0.992188 0
  0.867188   0.937500 0
  0.929688   0.695312 0
  0.914062   0.765625 0
  0.906250   0.726562 0
  0.859375   0.921875 0
  0.867188   0.914062 0
  0.843750   0.960938 0
  0.851562   0.953125 0
  0.843750   0.953125 0
  0.921875   0.742188 0
  0.882812   0.484375 0
  0.914062   0.734375 0
  0.882812   0.476562 0
  0.960938   0.992188 0
  0.960938   0.984375 0
  0.859375   0.984375 0
  0.867188   0.968750 0
  0.937500   0.757812 0
  0.898438   0.500000 0
  0.929688   0.750000 0
  0.890625   0.492188 0
  0.898438   0.492188 0
  0.890625   0.484375 0
  0.875000   0.945312 0
  0.828125   0.539062 0
  1.000000   0.679688 0
  0.960938   0.695312 0
  0.992188   0.953125 0
  0.953125   0.687500 0
  0.898438   0.937500 0
  0.414062   0.523438 0
  0.406250   0.515625 0
  0.468750   0.523438 0
  0.398438   0.679688 0
  0.429688   0.562500 0
  0.257812   0.906250 0
  0.859375   0.835938 0
  0.250000   0.898438 0
  0.851562   0.828125 0
  0.906250   0.781250 0
  0.281250   0.867188 0
  0.882812   0.757812 0
  0.257812   0.843750 0
  0.492188   0.687500 0
  0.906250   0.750000 0
  0.281250   0.835938 0
  0.390625   0.843750 0
  0.398438   0.851562 0
  0.906250   0.703125 0
  0.281250   0.789062 0
  0.593750   0.132812 0
  0.898438   0.695312 0
  0.273438   0.781250 0
  0.585938   0.125000 0
  0.445312   0.726562 0
  0.406250   0.523438 0
  0.445312   0.781250 0
  0.398438   0.523438 0
  1.000000   0.453125 0
  0.437500   0.781250 0
  0.468750   0.726562 0
  0.960938   0.640625 0
  0.882812   0.679688 0
  0.257812   0.765625 0
  0.570312   0.109375 0
  0.890625   0.687500 0
  0.265625   0.773438 0
  0.578125   0.117188 0
  0.382812   0.664062 0
  0.390625   0.671875 0
  0.921875   0.718750 0
  0.296875   0.804688 0
  0.609375   0.148438 0
  0.429688   0.500000 0
  0.421875   0.500000 0
  0.367188   0.757812 0
  0.406250   0.859375 0
  0.429688   0.656250 0
  0.492188   0.546875 0
  0.484375   0.539062 0
  0.484375   0.546875 0
  0.882812   0.687500 0
  0.257812   0.773438 0
  0.500000   0.851562 0
  0.453125   0.734375 0
  0.492188   0.539062 0
  0.421875   0.593750 0
  0.429688   0.601562 0
  0.437500   0.609375 0
  0.906250   0.789062 0
  0.281250   0.875000 0
  0.414062   0.570312 0
  0.460938   0.828125 0
  0.421875   0.570312 0
  0.429688   0.570312 0
  0.437500   0.578125 0
  0.257812   0.789062 0
  0.890625   0.718750 0
  0.265625   0.804688 0
  0.265625   0.796875 0
  0.882812   0.718750 0
  0.257812   0.804688 0
  1.000000   0.515625 0
  0.375000   0.601562 0
  0.382812   0.609375 0
  0.406250   0.570312 0
  0.398438   0.570312 0
  0.406250   0.578125 0
  0.390625   0.812500 0
  0.460938   0.632812 0
  0.453125   0.625000 0
  0.390625   0.875000 0
  0.953125   0.460938 0
  0.257812   0.796875 0
  0.882812   0.710938 0
  0.265625   0.906250 0
  0.867188   0.835938 0
  0.953125   0.492188 0
  0.960938   0.500000 0
  0.281250   0.953125 0
  0.460938   0.515625 0
  0.273438   0.945312 0
  0.453125   0.507812 0
  0.265625   0.937500 0
  0.398438   0.625000 0
  1.000000   0.640625 0
  0.375000   0.726562 0
  0.976562   0.656250 0
  1.000000   0.648438 0
  0.375000   0.734375 0
  0.476562   0.531250 0
  0.453125   0.789062 0
  0.414062   0.531250 0
  0.914062   0.453125 0
  0.421875   0.531250 0
  0.437500   0.562500 0
  0.437500   0.554688 0
  1.000000   0.710938 0
  0.375000   0.796875 0
  0.429688   0.554688 0
  0.468750   0.804688 0
  0.429688   0.546875 0
  0.929688   0.468750 0
  0.859375   0.453125 0
  0.867188   0.632812 0
  0.437500   0.859375 0
  0.875000   0.640625 0
  0.906250   0.679688 0
  0.281250   0.765625 0
  0.414062   0.750000 0
  0.726562   0.093750 0
  0.406250   0.750000 0
  0.406250   0.664062 0
  0.890625   0.679688 0
  0.265625   0.765625 0
  0.500000   0.671875 0
  0.898438   0.687500 0
  0.273438   0.773438 0
  0.484375   0.515625 0
  0.421875   0.679688 0
  0.882812   0.703125 0
  0.945312   0.453125 0
  0.476562   0.507812 0
  0.414062   0.671875 0
  0.281250   0.843750 0
  0.421875   0.562500 0
  0.960938   0.484375 0
  0.335938   0.570312 0
  1.000000   0.742188 0
  0.375000   0.828125 0
  0.476562   0.875000 0
  0.468750   0.867188 0
  0.484375   0.859375 0
  0.484375   0.867188 0
  0.460938   0.796875 0
  0.421875   0.539062 0
  0.921875   0.460938 0
  0.453125   0.796875 0
  0.414062   0.539062 0
  0.500000   0.562500 0
  0.500000   0.507812 0
  0.414062   0.867188 0
  0.437500   0.687500 0
  0.859375   0.679688 0
  0.257812   0.875000 0
  0.859375   0.804688 0
  0.453125   0.820312 0
  0.414062   0.562500 0
  0.460938   0.687500 0
  0.398438   0.820312 0
  0.882812   0.468750 0
  0.257812   0.554688 0
  0.859375   0.484375 0
  0.484375   0.656250 0
  0.437500   0.531250 0
  0.445312   0.671875 0
  0.437500   0.804688 0
  0.398438   0.546875 0
  0.445312   0.812500 0
  0.406250   0.554688 0
  0.281250   0.898438 0
  0.382812   0.835938 0
  0.414062   0.835938 0
  0.867188   0.460938 0
  0.890625   0.789062 0
  0.265625   0.875000 0
  0.867188   0.804688 0
  0.265625   0.882812 0
  0.867188   0.812500 0
  0.492188   0.718750 0
  0.468750   0.640625 0
  0.406250   0.828125 0
  0.492188   0.515625 0
  0.500000   0.859375 0
  0.437500   0.718750 0
  0.437500   0.570312 0
  0.484375   0.679688 0
  0.445312   0.507812 0
  0.390625   0.562500 0
  0.445312   0.789062 0
  0.406250   0.531250 0
  0.476562   0.570312 0
  0.437500   0.507812 0
  0.929688   0.726562 0
  0.304688   0.812500 0
  0.617188   0.156250 0
  0.273438   0.890625 0
  0.265625   0.828125 0
  0.437500   0.539062 0
  0.445312   0.867188 0
  0.273438   0.835938 0
  0.468750   0.718750 0
  0.437500   0.664062 0
  0.453125   0.679688 0
  0.382812   0.718750 0
  0.695312   0.062500 0
  0.468750   0.562500 0
  0.882812   0.648438 0
  0.406250   0.546875 0
  0.484375   0.570312 0
  0.484375   0.625000 0
  0.398438   0.539062 0
  0.898438   0.781250 0
  0.273438   0.867188 0
  0.406250   0.562500 0
[...]
POINT_DATA 15808
SCALARS scalar_value float 1
LOOKUP_TABLE default
3.96603e-08
-5.81024e-09
0
-5.29652e-10
0
1.85351e-09
8.11246e-07
1.52188e-08
-3.13035e-10
0
-8.1461e-07
0
0
0
0
1.67988e-10
2.85602e-09
-9.49026e-07
0
3.0303e-07
0
0
-3.63264e-10
0
-4.01833e-10
0
-1.27294e-09
-1.04377e-10
1.25306e-07
0
0
5.87729e-05
0
0
0
1.07774e-05
0
0
2.80346e-05
7.41375e-08
1.65274e-08
1.25264e-07
1.17207e-08
0
1.27863e-05
-1.31176e-07
1.524e-06
0
0
2.43001e-08
0
2.57151e-06
0
0
0
0
7.4641e-09
0
0
1.54492e-08
-4.3351e-10
-8.05694e-09
-4.64913e-10
0
2.47203e-08
-1.44561e-10
-6.42698e-07
0
-2.21456e-10
4.49534e-06
-2.7976e-08
-1.579e-10
-1.55814e-09
0
3.11938e-06
3.99986e-08
0
0
0
0
-5.34061e-09
0
7.6673e-08
0
0
0
0
2.01751e-08
0
1.01303e-10
0
0
0
-1.52025e-07
0
0
0
0
-9.70085e-10
2.4932e-05
0
0
-6.10154e-09
0
0
0
0
0
-1.12391e-09
0
-3.01459e-09
4.69087e-09
0
0
-1.1694e-06
-1.61362e-10
-1.59389e-06
-3.17496e-10
1.18832e-07
0
0
1.79368e-07
0
0
2.84033e-05
0
0
0
0
1.40801e-08
0
0
0
8.29385e-09
0
0
-6.41112e-10
7.61747e-06
0
-4.4408e-08
2.34128e-05
0
0
0
0
0
0
-3.14014e-10
-1.49308e-05
0
0
3.39162e-07
0
1.0466e-05
-1.88044e-10
0
-7.95791e-07
-1.55409e-06
0
0
-1.078e-09
0
0
-2.23595e-07
0
-4.28165e-07
0
0
-7.49694e-09
-2.03624e-10
-2.79633e-10
0
0
0
0
0
-1.62601e-10
4.2028e-05
-5.8246e-10
4.83873e-05
0
0
0
0
0
2.80437e-05
0
3.68527e-05
3.91983e-05
4.46457e-05
0
1.605e-05
-1.52975e-10
-8.10674e-10
0
-2.25495e-09
0
0.795153
0.829599
0.0151667
0.0044215
0.0278744
2.4414e-08
-1.82531e-10
2.78818e-08
-4.36187e-10
0
1.73056e-07
-4.47497e-10
-9.27355e-09
-0.000526579
-6.77485e-10
-2.21551e-08
1.84982e-06
-1.40931e-05
1.24881e-08
1.21843e-07
5.07369
7.54267e-09
1.67094e-07
3.50577
-8.53727e-06
0.644627
-9.25882e-05
0.368126
-1.64445e-08
0.000320853
-1.55285e-05
-1.63826e-08
-3.9685e-08
2.77123e-08
5.77602
-5.1807e-09
6.47732e-08
4.91925
8.75922e-05
0.000230914
1.45927e-09
9.28832e-07
5.89654
2.58604
2.61267
-3.99594e-05
-1.64886e-05
1.87031e-05
0.00491407
0.00705042
0.00547081
3.11355e-08
2.81375e-08
2.61798e-05
-0.000203146
0.00677118
0.0604393
-0.000814647
-0.00401428
0
9.52595e-08
0.334862
-4.39712e-05
0.137547
0.0167113
-0.000374305
5.77609e-08
6.06902e-09
4.61913e-08
8.91079e-08
2.06746e-09
4.09646e-08
-1.14402e-07
0.000581062
0.00053695
0.20703
0.0387566
0.177564
0.00165419
-0.00210218
-0.00283664
-1.73211e-06
-2.66869e-06
6.15645e-08
6.43902e-09
1.90676e-08
-2.81675e-10
6.39482e-07
-7.04683e-07
6.5146e-09
0.026387
3.3568e-09
0.0562348
4.11902e-09
0.00924517
-1.97034e-09
0.000324078
-2.27628e-09
-1.31663e-09
0.000143933
0.010123
-7.40906e-05
0.671639
-3.97964e-06
0.502326
0.00383107
0.00730303
-1.92281e-10
0.00110723
0.0453664
-0.000179206
0.0718079
-5.5711e-06
5.37241e-05
1.20505e-07
-8.35031e-06
9.75428e-08
-1.57755e-08
1.60357e-07
0.00861764
2.25467
0.0178279
0.071075
-5.2569e-08
5.02569e-08
-0.000555352
-2.07029e-08
1.29655e-07
0.0159684
0.00187185
2.62293e-08
-3.08446e-06
0.0220165
0.02958
-1.38712e-07
0.177838
-7.0102e-07
0.00183683
0
2.36474e-06
3.75252e-05
2.91825e-05
2.28658e-05
2.09164e-05
-0.000117692
0.382293
-6.27746e-06
-4.22559e-08
0.574314
0.00271993
0.0189164
-2.14119e-05
0.000153653
2.67761e-07
2.22787e-08
-4.88673e-10
-4.54808e-05
0.379446
-0.000335883
-0.000290968
5.14037e-05
0.000263646
2.27716e-05
-0.000467127
0.0446744
-0.000240962
0.000320415
0.104874
-3.44065e-05
0.287424
1.3273e-08
4.83059e-06
-4.468e-05
5.12825e-05
-3.62969e-10
5.18015e-08
-4.56337e-10
4.6274e-08
-3.185e-10
-5.39873e-05
-0.00150322
-8.55202e-05
0.0156171
8.56582e-06
-4.54684e-05
0.00157612
-0.000795726
0.188574
0.00766922
-7.70888e-05
0.51508
-0.000844495
0.76935
1.35372e-09
4.53316e-07
5.86648
3.98758e-09
7.99158e-08
0.0227338
-7.55949e-06
3.70898e-08
-4.45434e-05
-1.37537e-05
-0.000311121
0.000148186
4.94285
-0.00408246
6.15776e-08
0.346329
0.00493393
-0.00141944
0.150118
-2.79641e-10
8.14418e-08
0.243444
-7.00819e-10
-5.06056e-09
0.0739614
0.00481689
-1.88981e-07
0.00422389
0.00545769
-1.90915e-05
0.00480373
-0.00163736
0.0357919
3.16077e-09
0.0434094
0.122146
0.423335
0.0231857
1.00941e-09
0.00816626
-9.73617e-10
-2.18251e-08
0.016986
0.050325
0.00400362
0
-0.00152254
1.14922e-10
0.000519517
0.181059
0.498558
-4.08892e-05
0.293197
0.0214631
0.227246
1.31478e-08
-3.24298e-09
2.77614e-08
-2.08421e-10
4.63158e-09
0.43465
1.00793e-05
-0.0014897
-1.94395e-05
0.321742
-1.48774e-08
-5.6236e-10
0.00153262
-0.00114188
-1.91809e-05
2.90744e-07
-3.77082e-06
-2.4621e-05
0.06902
0.0187769
-1.31783e-09
2.52415e-08
0.232792
0.00563357
-4.04048e-08
-0.00187368
0.0171622
0.0489746
-4.55909e-10
-3.18154e-09
0.00398713
9.01921e-05
0.000435751
7.42174e-05
-3.93983e-05
-1.01946e-05
-6.21462e-10
0.00342792
-1.39839e-10
2.95801e-08
-3.92663e-10
0.134375
-0.000246552
0.000763955
0.000985535
0.00173881
0.0022452
-4.47485e-10
0.0019666
0.00491917
0.00376988
-9.27156e-10
-1.39509e-08
-1.28402e-09
-5.16989e-09
3.9114e-10
0.00474049
0
-1.00475e-06
-8.56599e-10
-1.61262e-10
9.28589e-08
-4.86617e-10
-2.81581e-05
8.65842e-05
0.0191979
0.01425
-5.92999e-10
-2.32548e-06
0.031156
0.0256792
6.32e-06
-3.89035e-06
0.0398472
3.95931
0.00394074
5.06041
-8.69408e-06
0.199825
0.672337
0.348098
4.38592e-05
1.27591e-07
2.18236e-05
-2.85745e-09
0.000309017
0.0051085
0.000632067
-6.20432e-07
-3.51658e-05
0.00335906
-5.41995e-07
-0.000434786
-4.26998e-06
5.28549e-08
0.0124648
0.015609
0.0119822
0.00854097
0
3.58284e-06
0.0190426
0.00107953
5.35634
0.00297639
0.00304232
-6.93544e-06
0.000386908
0
3.39146e-07
0.00364869
0.00988386
0.000250675
0.00227448
0.0519113
0.00295648
6.38882e-08
6.85543e-05
3.31715e-05
0.000629164
1.79722e-06
-6.47443e-05
-1.889e-05
-1.1289e-05
-0.00111113
0.0474665
0.0604292
-2.43603e-05
-2.11281e-05
0
2.33362e-07
0.00106716
0
2.37623e-07
0.00981247
0.0127392
0.00937606
0.013236
0.017082
8.41135e-06
0.000640218
0.0427253
-0.000695156
-0.00206696
0.0449814
0.0032788
2.96749e-05
0.000125661
8.60348e-05
0.000198301
0.000410287
0.000271703
4.94322e-05
-2.65936e-09
0.000174062
6.32516e-05
-8.62709e-07
-0.00363592
7.15441e-08
-0.00613801
-0.00454747
0.0033925
0.0140446
0.0213869
0.092713
0.00375688
0
7.21221e-07
0.00899614
0.00561643
1.62875e-05
-1.65435e-06
0.000107089
8.88005e-10
-9.83069e-07
0.087632
0.0353957
-7.48652e-06
1.19041e-06
-0.000951476
-0.00507717
1.13315e-05
4.47852e-05
8.79366e-06
0.000127585
0.000471133
-0.00379586
-0.000183953
0.000342542
0.000459552
1.85343e-06
-6.7049e-05
9.66569e-06
5.95109e-05
6.23842e-08
6.05156e-08
5.12876e-05
-3.75074e-05
-2.65051e-09
3.81824
5.30567
7.16612e-10
0
9.27074e-10
1.77371e-09
2.04013e-05
-7.11391e-08
6.61097e-05
0.00427862
5.03864e-06
0.000292716
-1.1837e-07
-1.08795e-07
-1.91525e-07
5.7419e-07
2.69892e-07
-1.13222e-07
4.4248
-8.55194e-09
4.54934e-10
0
0
1.38071e-07
0
2.50239e-07
4.84666e-08
2.11268e-10
4.67331
2.4258e-08
1.58244e-05
0
-9.08212e-10
1.90807e-10
-1.62266e-09
0
-4.58739e-07
0.10081
-5.31913e-07
1.80211e-10
0.00471165
3.47506e-10
6.05836e-08
1.92528e-10
-8.14557e-08
-1.63209e-05
0
-2.30165e-07
-4.45975e-07
1.78358e-06
6.82612e-10
-3.05742e-07
-7.96921e-09
-4.79302e-09
0
-4.50146e-09
3.22824e-09
0
2.54653e-05
-2.92212e-06
4.50142e-07
-0.000132127
0
0
4.22523e-06
9.82979e-06
1.75284e-05
6.1899e-06
1.46338e-08
1.39245e-08
0
1.70273e-08
1.30329e-06
7.39886e-07
1.77e-08
1.92004e-06
1.11271e-06
4.18325e-07
0
0
1.02271e-07
0
0.0118754
0.00734879
0
4.63748e-10
0
5.27184
0.00559272
0
1.75477e-10
0
5.15893
4.79392
0.00451824
0
0
0
1.91516e-07
3.63895e-07
3.35791
3.41445
-1.82473e-05
4.61858e-08
0
-1.79643e-05
0
-0.000467409
-0.000140345
-9.83125e-05
-0.000452234
0
2.37663e-08
-2.09352e-09
0
0
-0.00122499
0
0.00699914
0.00666614
1.30578e-08
1.42935e-08
-8.71505e-05
9.30462e-06
2.39161e-06
-6.39754e-06
6.28753e-05
0.0146365
0
0
0
0.000132201
1.44279e-08
0.00424982
4.83713e-10
0
2.17834e-06
0
0
3.01341e-05
0
0
3.99917e-05
0
0
-0.00024914
-3.10947e-06
-9.42023e-10
3.69301e-09
1.15391e-09
9.1362e-10
0
3.99097e-09
3.06091e-08
-2.10864e-05
-1.07488e-05
-1.67528e-05
1.02124e-07
2.01487e-10
0.00362344
1.84474e-05
0
5.3404
-3.04775e-05
-6.61785e-05
-0.000322975
0.0257252
-2.8376e-07
-6.89904e-10
0.0368351
1.81433e-09
3.89902e-08
-1.51022e-05
-6.42053e-06
3.09632e-05
4.97506
1.00054e-08
-8.05621e-09
2.03275e-10
0
-3.32491e-07
1.5757e-06
2.90301e-07
-1.4818e-06
2.51653e-05
4.20083
0.00122441
2.59519e-05
-1.12509e-08
3.01214e-10
2.01982e-05
3.99673
-0.000182771
0.000901008
2.48122e-05
0.000903511
1.221e-05
0.000113835
7.95266e-05
0.0827371
-1.73787e-09
-5.81877e-07
-2.68451e-09
-1.51478e-06
7.05966e-10
5.67871e-10
0
0
4.60986e-07
6.6182e-10
-4.42882e-08
1.02649e-10
-3.73683e-07
-7.21176e-06
0
4.04326e-05
5.14059e-05
0.0244511
-5.37883e-06
7.15372e-10
0.00738243
-7.32482e-09
7.66912e-10
0.00559584
-5.69637e-09
1.21419e-09
1.77462e-05
-6.31101e-07
5.28495e-07
1.85716e-05
1.82761
1.70403e-06
1.26454e-07
2.75186e-05
1.822
0.00115192
6.03236e-07
0
1.52749
-2.65994e-06
-9.57443e-06
2.8818e-05
-2.07311e-07
0
1.64007e-06
3.53654e-07
-6.89979e-06
4.31527e-09
5.19013e-10
-6.99209e-09
0.00331365
3.49251e-08
-4.2382e-09
0.0025764
-2.37711e-09
3.30161e-09
0.00198339
-7.98659e-10
9.66654e-09
5.31455
0
0
-7.45001e-07
-1.38357e-06
0
7.02105e-09
1.0746e-10
3.0348e-05
1.87565
-1.70258e-07
1.18453e-10
0.00061562
0
5.47845e-08
0
-8.41018e-07
0
5.25187e-09
-1.14186e-07
1.94371e-09
1.2692e-08
0.076208
0
0
-0.000166377
0
-4.49541e-06
-2.44048e-06
0
0
0.207701
6.13175e-10
6.18936e-10
0
-3.26632e-10
0
0
0
-6.57953e-07
2.14135e-07
0
0
-7.64197e-07
0
8.08658e-08
4.95979e-08
1.35495e-09
-5.78587e-09
6.57255e-06
6.74486e-06
5.69295
0.0418437
0.000176856
5.22749
-7.72727e-08
0
-3.65596e-07
5.46358
1.48585e-10
-4.37269e-08
0
5.21086
3.19385e-08
1.25603e-10
4.94496
0.00825092
5.31924
5.90886e-10
1.85684e-08
5.50108
3.2198e-10
3.90059e-08
4.86442e-08
-3.35677e-09
2.69771e-08
0
4.69489e-10
0
0
-9.81089e-08
5.64664e-05
0
0
-4.34112e-09
0
-0.000328044
0
5.78935e-07
4.19664e-09
-4.86015e-09
3.77572e-08
1.20299e-05
-1.02293e-05
-4.06386e-09
7.96535e-09
6.24578e-09
2.62159e-10
3.01067e-10
-7.85095e-09
1.87381e-10
-6.52494e-09
-3.32244e-09
3.89117e-06
2.08642e-06
2.47938
-1.45347e-07
0
0
6.90252e-05
0
1.07455e-09
-1.36877e-09
-7.90322e-08
1.95675e-09
1.08022e-05
1.86192e-06
-1.13515e-08
2.07348e-09
-5.19559e-09
0
0.00296668
0
0.000849401
-1.01577e-09
1.65866e-07
2.49409e-10
1.77896e-10
0
-2.30403e-07
0
7.17233e-08
1.0027e-10
1.90482e-10
0.0642967
0.0444404
-0.000659295
-1.74998e-05
-2.57305e-05
0.430541
-1.1685e-05
0
0.000157165
2.04457e-10
3.11035e-08
1.54759e-08
1.55233e-10
0.226998
5.48127e-10
5.71636e-09
1.60415e-07
2.35678e-10
0
-1.63558e-07
-5.02925e-09
0
5.22211e-10
0
-2.41276e-05
9.1938e-10
0
-2.7301e-05
0
-7.83225e-05
6.85288e-07
2.15832e-10
2.42517e-05
1.72491e-10
2.02043e-05
0.0118366
5.72144e-08
1.4578e-10
0
-2.54494e-08
2.44486e-07
3.04991e-10
9.66709e-08
2.21166e-08
0.00386164
1.80591e-07
2.41157e-10
0
-9.12294e-08
1.22899e-09
-8.9357e-09
2.92158
4.9623e-08
0.000782205
5.20629e-08
5.5174e-08
0
-9.8588e-06
0
3.21999e-07
1.47725e-09
5.52999e-08
3.56057e-08
1.62936e-08
0.0151775
0
3.67624e-05
1.96557
2.00228e-05
2.07546
-2.82095e-07
-5.9277e-07
4.59986e-06
2.3143
-1.46494e-09
-1.66877e-09
1.80261e-09
0
2.6128e-08
8.55896e-09
0
0
6.53973e-08
0
-1.76491e-07
7.10775e-10
4.12846e-09
1.13361e-09
-1.15367e-07
0
0
1.43132e-08
2.2564e-10
0.00667976
0
-8.11817e-09
0
0.00613883
-1.60761e-08
3.75459e-08
3.28735e-09
0
8.34981e-07
0
0.0169292
-2.48353e-08
1.82913e-07
2.56243e-09
3.32109
-1.2219e-08
2.60381e-10
0.00995236
-3.3682e-08
0
0.0120438
-0.00263819
1.43645e-08
8.53823e-10
0
-5.18613e-09
-0.00236051
0
-1.63672e-08
2.3466e-10
0.0022265
3.45153e-08
2.39859e-10
0.00103703
0
-3.19397e-08
2.01667e-10
0.00113368
0.00419953
3.28155e-08
1.39186e-10
0.00581465
3.29772e-08
7.44728e-08
2.04039e-08
0.00577527
0
-2.02369e-09
4.04493e-08
2.56841e-10
-5.10697e-09
1.79157e-07
2.60483e-07
0.456879
1.93961e-10
2.0567e-10
3.73097e-06
5.4745e-06
-2.95307e-09
4.86065e-08
3.54564e-08
1.94227e-09
-8.48109e-09
0
1.39083e-07
-3.61247e-09
-7.23031e-09
7.58411e-08
1.17581e-05
-7.42869e-07
-1.14273e-09
-1.685e-08
0.0159679
2.03193e-05
0
0.00510679
0.0015432
0.0213302
4.44814e-09
1.73352e-05
0.00152926
0
-3.68332e-08
1.9882e-07
3.4097e-10
-2.13025e-07
2.95204e-10
8.12521e-10
-4.03655e-07
2.32481e-05
7.6829e-10
2.17135e-09
3.18021e-10
-8.57918e-09
0
-2.64683e-05
-1.02609e-09
2.27305e-07
-3.53398e-07
0
5.44543
0
1.29057e-08
2.01781e-10
7.15493e-06
3.13083e-09
1.35254e-07
0
3.67141e-08
1.85036e-10
6.47062e-09
9.18433e-06
2.96072e-09
0
4.66958e-06
2.38527e-09
-2.46527e-06
-2.6916e-09
-5.42475e-05
0
3.03333e-06
2.67962e-10
0.0300054
-1.07324e-09
4.91625e-09
5.25513
3.6947e-10
0.0185443
4.18134e-09
1.94377
3.42626e-10
0.0322907
-0.000355578
-5.03315e-07
1.06326e-10
0.0137204
3.09798e-10
0.0115424
9.36007e-07
-5.42937e-07
0
1.95662e-10
0.0156311
6.63323e-07
-1.09e-06
0
-6.75005e-08
1.09138e-10
2.78836e-08
2.174e-06
0.0222163
7.86196e-10
0.0413608
2.00219e-08
0
0.000956515
7.81551e-05
7.67421e-10
0.0435339
0.00183078
6.88438e-10
0
2.22302e-10
-1.24092e-06
-0.000165086
1.88879e-07
-2.74483e-10
0
3.17153e-10
-9.09641e-09
6.65738e-10
1.69749e-05
0.0212053
0
-9.6144e-10
3.98926e-09
5.02343e-10
1.34491e-07
-7.97103e-07
0
4.68788
0
-7.09291e-05
-6.25969e-09
-1.1204e-07
0
5.33146e-09
1.50729e-08
1.3972e-08
0.016726
2.20073e-10
1.58717e-06
2.91058e-07
1.68009e-09
0
-0.000234772
2.52093e-07
0
0
4.45497e-10
-1.29702e-07
0
-5.70398e-08
0
1.56383e-08
0
5.77789e-09
0
-6.80865e-08
0
0
1.15621e-08
0.00103809
-6.84545e-08
0
0.0171886
0
-1.72053e-06
2.8006e-10
0
3.61779e-07
3.32206e-08
5.39297e-09
-2.3255e-05
1.55828e-07
-7.22705e-08
0
8.91056e-08
0
0
3.40602e-06
7.34932e-05
3.46254e-08
3.09045e-08
-6.59338e-07
0
-5.12849e-05
-1.12055e-09
-7.63769e-08
3.52105e-08
6.04764
3.5711e-10
0
0
-0.000320149
-3.85029e-09
1.17587e-06
9.34764e-10
1.20947e-06
0
-7.85715e-10
0
-5.891e-06
2.42159e-07
-1.41671e-07
0
4.15991e-07
5.41126e-05
-1.48353e-06
5.00358e-08
1.7758e-10
-2.767e-08
1.26201e-10
0
0
3.01927e-10
6.59078e-09
9.60216e-07
5.62725e-09
8.47157e-09
0.0153565
0
1.12633e-05
-2.91708e-07
0
-6.07613e-09
1.26688e-06
9.66577e-10
1.75505e-06
1.39594e-07
7.5747e-09
0
7.71383e-10
0
0
3.22506e-05
8.83608e-09
4.50931e-10
4.34214e-09
0.000304607
-1.3264e-07
0
0.0258052
1.8026e-10
-2.2766e-09
0
8.03978e-09
0
-2.29359e-07
0
9.58241e-10
0
7.4301e-10
0
-1.41016e-09
4.58639e-09
-5.70397e-10
0
3.12997e-06
3.7348e-06
-1.02796e-06
0.153975
2.10799e-07
2.95912e-06
3.76775e-09
3.15176e-05
0
-4.86989e-07
0.35433
1.08331e-09
8.52604e-09
-1.07837e-09
-2.82538e-08
1.26877e-10
1.16071e-07
-6.38161e-08
0
0.678736
3.2159e-10
0
-1.20784e-08
0.010735
1.83564e-08
1.69429e-06
5.96497e-05
0
-3.7257e-08
0
0.78675
5.09168e-10
0
-5.41692e-09
4.64447e-09
4.2298e-07
0.0179201
2.80366e-10
-0.00726167
7.8321e-10
0.0844995
-8.7409e-07
-1.4925e-08
1.07763e-10
5.35266e-08
0.0316248
0
6.96996e-06
2.69112e-10
0.0237907
-1.07905e-08
1.38779e-10
0
2.49921e-08
-2.90967e-06
0
1.69398e-08
1.89588e-08
2.45798e-10
0
1.01605e-09
6.68855e-05
4.29638e-05
2.54747e-06
4.11344e-09
-4.46795e-06
1.51065e-09
5.49084e-08
0
-1.54939e-08
0
2.06897e-08
0
-2.73485e-07
-1.60654e-08
0
2.72637e-08
0
8.20235e-09
3.08287
4.57387e-10
-2.98321e-09
3.35616e-10
-2.91953e-09
0.00212183
2.35841e-09
0
1.82003e-10
0.0209744
0
-5.42525e-08
1.16879e-08
0
0.000513697
0.000640551
6.03907e-08
3.97445e-05
2.35663e-08
3.77751e-10
3.99103e-08
1.03708e-09
8.74457e-06
5.51497e-10
-0.00244885
4.10213e-09
4.09935e-10
0.206914
0
-3.35971e-10
-8.23508e-09
0
0.0109772
1.86211e-08
0.00343342
-6.87972e-10
1.32864e-08
2.59842e-07
6.20516e-06
0
3.01097e-07
0
0
-4.42217e-08
0.0143751
-6.84994e-08
0
0
3.74787e-09
-3.89563e-08
0
2.49807e-05
-2.54849e-08
0
-2.76194e-05
4.66321e-08
0
7.9796e-09
0.00016946
0
1.30878e-06
2.31353e-05
-0.00193158
3.29655e-07
-0.000504975
0
4.39911e-06
5.92688e-09
0.205322
1.25631e-10
1.74073e-06
2.43405e-08
3.12249e-07
0
0
-4.26567e-07
3.57374e-08
0
3.46675e-06
0
0
-1.79782e-07
2.93778e-06
9.2267e-09
1.83739e-08
0
0.000442309
-5.67879e-05
2.46491e-10
0
0
1.97703e-08
0
6.61183e-09
0
0.000370242
-5.80122e-09
0.000212782
-0.00813065
7.70418e-06
0.000533303
7.9704e-08
0
0
3.1632e-08
-3.67752e-08
0
1.42525e-09
3.78127e-08
0
0
2.31825e-08
1.94379e-09
1.70322e-08
1.60785e-08
2.37806e-09
1.05987e-09
1.53464e-08
1.68066e-08
-0.000406051
1.55148e-05
6.86757e-09
0
3.44243e-06
2.6366e-05
8.2291e-06
1.55524e-08
0
3.98218
1.83478e-08
3.28426e-09
0
8.79379e-09
-1.38698e-08
0
1.39963e-05
1.77914e-07
5.20168e-09
0
6.26998e-09
9.9775e-08
0.196105
4.07487e-08
0
0.110158
0
0
1.4543e-08
1.0892e-07
0.604975
2.01325e-09
0
6.69214e-09
-2.4903e-05
0
9.87916e-05
1.03506e-06
0
3.52367e-09
3.22376e-09
1.3019e-05
2.25194e-09
4.128e-05
2.72952e-06
1.51734e-09
0
9.93624e-05
4.24076e-07
-7.08958e-05
0
3.31522e-07
-2.90538e-05
0
1.41548e-07
0
2.98922e-09
5.95681e-09
0.000944749
2.72231e-10
-0.00692771
9.63101e-08
0.000689991
5.06313e-08
1.67601e-10
5.07582e-08
9.01849e-08
0.000115387
3.04904e-09
-0.00321179
4.15541e-06
1.88649e-08
0
-8.84948e-09
1.26507e-10
0.000258287
-8.30703e-09
1.35165e-10
0.000360862
1.87763e-10
0.0131981
2.53735e-07
0
4.78947e-09
-1.23967e-07
0
2.21968e-06
8.47246e-08
8.17656e-10
8.00113e-08
2.88261e-05
-6.79885e-10
3.04334e-08
-1.57873e-09
2.15543e-08
-4.02338e-09
2.92063e-05
0.1461
7.39637e-10
1.38151e-08
-1.44537e-09
1.14094e-08
1.0132e-10
0.00978006
-5.67222e-07
-8.81379e-06
-5.50341e-06
0.851124
2.01865
0.55283
1.18581e-09
3.5385e-10
5.94094e-09
-2.12232e-06
0.000319059
-4.55145e-08
0
0.224125
4.31994e-06
1.28864e-09
-5.12537e-06
0
1.92766e-05
0.00178945
-2.85249e-08
-0.000190876
4.67524e-07
-8.87346e-10
0
4.27125e-06
9.85176e-05
-1.84488e-08
3.00249e-05
0.00432086
0
0.00113
0
-2.20681e-08
4.05566e-06
4.98149e-05
0.0107073
-8.49416e-10
1.85544e-08
-5.01634e-09
7.19551e-05
0.013015
-3.00647e-09
6.82381e-09
0
-2.81455e-10
-1.51009e-07
0
7.11148e-10
0.0063063
-4.60086e-09
4.80616e-06
-0.00529439
-0.00461797
5.5575e-10
-7.99432e-10
2.85501e-10
0
-6.46353e-10
-3.72393e-09
0
0
0
-5.5913e-10
0
1.74043e-08
0
7.67616e-10
1.00356e-08
0
0
-6.83921e-10
0
-6.92166e-10
5.79833e-09
1.29079e-09
1.65312e-05
0
2.1298e-06
3.23876
8.83994e-10
1.9585e-09
-6.03322e-05
1.70665e-08
4.51289e-09
0.195412
-4.24901e-07
4.52781e-08
-1.68635e-10
1.93116e-08
-4.12154e-09
-7.34194e-09
0
-4.03758e-09
0
2.94894e-08
-1.55816e-09
1.60888e-06
0
5.69402
0.000340637
0
0.000199812
0
4.38528e-10
0
2.22419e-10
4.7405e-07
0
-2.63655e-10
0
6.49419e-10
-1.59285e-07
0
3.89797e-07
-6.73757e-08
0
4.6797e-07
0
0
3.73053e-08
0
0
1.04593e-07
6.15628e-07
0
4.06358e-08
0
2.7443e-09
1.3692e-05
4.27541e-06
8.68919e-06
-4.50708e-06
9.90233e-06
0.000733145
5.95964e-08
0
-2.87683e-05
-2.87972e-07
0
5.82035
3.41109e-08
0.0035621
5.00955e-05
1.75189e-05
1.5485e-10
1.19181e-10
-1.65101e-05
0.181467
-1.88818e-06
-1.98528e-08
1.16593e-10
-5.06721e-08
1.28485e-10
0
1.41576e-07
8.16174e-09
0
0
5.49077e-08
0.524296
0
8.70184e-10
-1.08862e-09
0
0
-2.6556e-10
-4.87338e-10
0
2.07209
7.97915e-09
0
0
-3.61495e-10
9.96251e-07
-7.52352e-10
0
1.76848
-2.70866e-06
-7.84668e-10
0
0.00859843
0.00713794
1.63287e-10
0.0017448
1.43025e-08
3.3925e-08
-5.40944e-10
0
-1.45064e-05
-2.22383e-09
0
0
-1.34351e-09
0
1.55135e-10
-0.000515223
0.44741
0.139116
0.0880902
0.127225
0.0488675
3.14969e-09
0.945727
7.24419e-09
0.355231
1.00299e-08
0.17767
1.29348e-08
0.273748
1.08924e-06
0
-1.95833e-07
-8.99589e-08
1.49371e-06
-1.95708e-07
0
2.66812e-07
0
1.42056e-08
0
-2.17944e-08
0
0
0
-5.2092e-10
0.0785826
-2.66709e-06
0
4.97193e-08
0.000559247
0.000719816
0.000243278
-1.24254e-06
0
-6.79956e-07
0
0.000224556
-0.000100273
0.000193
1.36452e-07
-0.000334096
-3.41563e-07
0
-1.54353e-07
0
5.6809e-07
6.91328e-06
-5.32938e-08
0
-2.34939e-05
-1.43659e-06
0
6.17763e-07
2.65542e-06
9.2958e-06
0
1.1565e-05
1.30054e-05
0
5.4072
-9.76767e-07
0
1.75116e-05
6.21566e-06
0
5.5251
-5.08993e-06
0
2.06076e-05
-4.25031e-06
0
1.68764e-05
-2.59629e-08
0
2.49059e-06
1.80536e-09
0
0
0
0
0
2.67743e-09
3.17161e-07
0
0
0
9.73262e-08
-2.34844e-08
0
3.36945e-07
0
0
7.05269e-08
0.0360495
1.1836e-06
1.34755e-09
1.64613e-09
6.3741
0.421852
4.19656e-08
1.36036e-10
6.07994
1.75025e-07
4.80923e-10
5.04236
8.3173e-05