# vtk DataFile Version 2.0
Unstructured Grid by M++
ASCII
DATASET UNSTRUCTURED_GRID
POINTS 4072 float
  0.562500   0.968750 0
  0.906250   0.500000 0
  0.750000   0.781250 0
  0.953125   0.531250 0
  0.984375   0.875000 0
  0.828125   0.828125 0
  0.828125   0.859375 0
  0.562500   0.765625 0
  0.937500   0.687500 0
  0.968750   0.578125 0
  0.968750   0.781250 0
  0.734375   0.843750 0
  0.968750   0.718750 0
  0.734375   0.796875 0
  0.984375   0.718750 0
  0.984375   0.703125 0
  1.000000   0.750000 0
  0.984375   0.734375 0
  1.000000   0.718750 0
  0.953125   0.859375 0
  0.953125   0.843750 0
  0.937500   0.843750 0
  0.921875   0.640625 0
  0.937500   0.625000 0
  0.671875   0.906250 0
  0.687500   0.890625 0
  1.000000   0.687500 0
  0.828125   0.796875 0
  0.828125   0.750000 0
  0.515625   0.750000 0
  0.828125   0.937500 0
  0.968750   0.625000 0
  0.984375   0.593750 0
  0.984375   0.796875 0
  0.750000   0.859375 0
  0.859375   0.937500 0
  0.828125   0.953125 0
  0.859375   0.781250 0
  0.593750   0.515625 0
  0.984375   0.750000 0
  0.734375   0.828125 0
  1.000000   0.734375 0
  0.750000   0.812500 0
  0.953125   0.562500 0
  0.968750   0.750000 0
  0.734375   0.812500 0
  0.968750   0.546875 0
  0.843750   0.906250 0
  0.875000   0.875000 0
  0.578125   0.640625 0
  0.750000   0.968750 0
  0.984375   0.906250 0
  0.625000   0.515625 0
  0.937500   0.593750 0
  0.781250   0.578125 0
  0.640625   0.968750 0
  0.937500   0.531250 0
  0.937500   0.515625 0
  0.953125   0.500000 0
  0.703125   0.796875 0
  0.859375   0.718750 0
  0.703125   0.765625 0
  0.921875   0.703125 0
  0.687500   0.765625 0
  0.921875   0.500000 0
  0.718750   0.781250 0
  0.734375   0.765625 0
  0.968750   0.687500 0
  0.968750   0.890625 0
  0.734375   0.953125 0
  0.859375   0.828125 0
  0.890625   0.484375 0
  0.843750   0.843750 0
  0.828125   0.765625 0
  0.968750   0.906250 0
  0.796875   0.578125 0
  0.765625   0.828125 0
  0.609375   0.968750 0
  0.734375   0.656250 0
  0.671875   0.875000 0
  0.531250   0.906250 0
  0.546875   0.921875 0
  0.765625   0.656250 0
  0.531250   0.937500 0
  0.531250   0.734375 0
  0.765625   0.671875 0
  0.843750   0.734375 0
  0.843750   0.937500 0
  0.609375   1.000000 0
  0.593750   0.796875 0
  0.828125   0.734375 0
  0.578125   0.812500 0
  0.671875   0.562500 0
  0.781250   0.562500 0
  0.656250   1.000000 0
  0.765625   0.796875 0
  0.656250   0.593750 0
  0.796875   0.562500 0
  0.625000   0.828125 0
  0.625000   0.625000 0
  0.859375   0.562500 0
  0.796875   1.000000 0
  0.890625   0.781250 0
  0.875000   0.781250 0
  0.625000   0.859375 0
  0.843750   0.781250 0
  0.859375   0.765625 0
  0.843750   0.765625 0
  0.859375   0.750000 0
  0.843750   0.750000 0
  0.765625   1.000000 0
  0.781250   0.984375 0
  0.875000   0.625000 0
  0.875000   0.812500 0
  0.640625   0.875000 0
  0.562500   0.906250 0
  0.796875   0.843750 0
  0.796875   0.828125 0
  0.656250   0.906250 0
  0.890625   0.640625 0
  0.875000   0.843750 0
  0.859375   0.843750 0
  0.625000   0.906250 0
  0.812500   0.875000 0
  0.859375   0.515625 0
  0.812500   0.843750 0
  0.796875   0.875000 0
  0.796875   0.859375 0
  0.593750   0.968750 0
  0.859375   0.875000 0
  0.625000   0.937500 0
  0.843750   0.875000 0
  0.593750   0.953125 0
  0.859375   0.859375 0
  0.828125   0.671875 0
  0.890625   0.765625 0
  0.656250   0.828125 0
  0.656250   0.625000 0
  0.890625   0.562500 0
  0.640625   0.843750 0
  0.640625   0.640625 0
  0.875000   0.578125 0
  0.890625   0.750000 0
  0.875000   0.765625 0
  0.562500   0.625000 0
  0.968750   0.500000 0
  0.734375   0.562500 0
  0.937500   0.578125 0
  0.703125   0.640625 0
  0.656250   0.984375 0
  0.640625   1.000000 0
  0.953125   0.578125 0
  0.671875   0.984375 0
  0.906250   0.921875 0
  0.921875   0.687500 0
  0.671875   0.765625 0
  0.687500   0.750000 0
  0.906250   0.484375 0
  0.984375   0.921875 0
  0.734375   1.000000 0
  1.000000   0.906250 0
  0.750000   0.984375 0
  0.828125   0.843750 0
  0.593750   0.906250 0
  0.828125   0.640625 0
  0.843750   0.828125 0
  0.609375   0.890625 0
  0.609375   0.687500 0
  0.843750   0.625000 0
  0.734375   0.875000 0
  0.968750   0.812500 0
  0.859375   0.812500 0
  0.625000   0.875000 0
  0.859375   0.609375 0
  0.843750   0.812500 0
  0.859375   0.796875 0
  0.828125   0.812500 0
  0.593750   0.875000 0
  0.828125   0.609375 0
  0.781250   0.843750 0
  0.515625   0.921875 0
  1.000000   0.781250 0
  0.765625   0.843750 0
  1.000000   0.578125 0
  0.765625   0.968750 0
  0.890625   0.703125 0
  0.656250   0.765625 0
  0.890625   0.500000 0
  0.875000   0.703125 0
  0.937500   0.937500 0
  0.984375   0.578125 0
  0.578125   0.531250 0
  0.875000   0.609375 0
  0.640625   0.671875 0
  0.796875   0.625000 0
  0.859375   0.593750 0
  0.625000   0.656250 0
  0.609375   0.671875 0
  0.593750   0.687500 0
  1.000000   0.562500 0
  0.765625   0.625000 0
  0.656250   0.578125 0
  0.625000   0.546875 0
  0.671875   0.812500 0
  0.906250   0.750000 0
  0.796875   0.546875 0
  0.828125   0.718750 0
  0.578125   0.781250 0
  0.875000   0.656250 0
  0.640625   0.718750 0
  0.734375   0.984375 0
  0.968750   0.921875 0
  0.609375   0.531250 0
  0.953125   0.921875 0
  0.968750   0.937500 0
  0.593750   0.546875 0
  0.765625   0.609375 0
  0.531250   0.671875 0
  0.781250   0.593750 0
  0.546875   0.656250 0
  0.656250   0.656250 0
  0.890625   0.593750 0
  0.656250   0.859375 0
  0.921875   0.671875 0
  0.968750   0.734375 0
  0.718750   0.812500 0
  0.812500   0.984375 0
  0.562500   0.796875 0
  0.750000   0.640625 0
  0.765625   0.687500 0
  0.531250   0.953125 0
  0.687500   0.656250 0
  0.921875   0.593750 0
  1.000000   0.593750 0
  0.750000   0.671875 0
  0.671875   0.750000 0
  0.906250   0.687500 0
  1.000000   0.656250 0
  0.812500   0.562500 0
  0.687500   0.796875 0
  0.921875   0.734375 0
  0.828125   0.546875 0
  1.000000   0.625000 0
  0.953125   0.968750 0
  0.750000   0.906250 0
  0.515625   0.968750 0
  0.812500   0.531250 0
  1.000000   0.796875 0
  0.515625   0.937500 0
  0.750000   0.875000 0
  0.812500   0.703125 0
  0.796875   0.703125 0
  0.812500   0.593750 0
  0.937500   0.562500 0
  0.656250   0.968750 0
  0.890625   0.906250 0
  0.703125   0.625000 0
  0.953125   0.546875 0
  0.671875   0.953125 0
  0.906250   0.890625 0
  0.984375   0.781250 0
  0.796875   0.687500 0
  0.562500   0.953125 0
  0.968750   0.875000 0
  0.718750   0.953125 0
  0.562500   0.937500 0
  0.781250   0.781250 0
  0.953125   0.875000 0
  0.718750   0.937500 0
  0.953125   0.671875 0
  0.796875   0.656250 0
  0.828125   1.000000 0
  0.953125   0.890625 0
  0.703125   0.968750 0
  0.828125   0.625000 0
  0.781250   0.968750 0
  0.781250   0.671875 0
  0.781250   0.875000 0
  0.546875   0.937500 0
  0.906250   0.640625 0
  0.671875   0.703125 0
  0.640625   0.609375 0
  0.875000   0.546875 0
  0.906250   0.625000 0
  0.656250   0.703125 0
  0.656250   0.718750 0
  0.968750   0.531250 0
  0.734375   0.593750 0
  0.984375   0.531250 0
  0.781250   0.546875 0
  0.718750   0.609375 0
  0.906250   0.703125 0
  0.968750   0.593750 0
  0.687500   1.000000 0
  0.921875   0.937500 0
  0.906250   0.765625 0
  0.906250   0.562500 0
  0.718750   0.750000 0
  0.718750   0.546875 0
  0.953125   0.484375 0
  0.796875   0.593750 0
  0.515625   1.000000 0
  0.750000   0.937500 0
  0.906250   0.593750 0
  0.546875   1.000000 0
  0.781250   0.937500 0
  0.828125   0.593750 0
  0.984375   0.609375 0
  0.937500   0.953125 0
  0.796875   0.515625 0
  0.968750   0.609375 0
  0.734375   0.671875 0
  0.906250   0.781250 0
  0.671875   0.843750 0
  0.515625   0.890625 0
  0.687500   0.625000 0
  0.921875   0.562500 0
  0.843750   0.531250 0
  1.000000   0.765625 0
  0.750000   0.843750 0
  0.812500   0.671875 0
  0.687500   0.921875 0
  0.765625   0.515625 0
  0.953125   0.609375 0
  0.921875   0.625000 0
  0.687500   0.687500 0
  0.812500   0.656250 0
  0.812500   0.859375 0
  0.578125   0.921875 0
  0.796875   0.765625 0
  0.890625   0.687500 0
  0.578125   0.750000 0
  0.812500   0.687500 0
  0.578125   0.953125 0
  0.796875   0.796875 0
  0.984375   0.890625 0
  0.734375   0.968750 0
  0.718750   0.640625 0
  0.968750   0.562500 0
  0.687500   0.968750 0
  0.921875   0.906250 0
  0.765625   0.953125 0
  0.812500   0.609375 0
  0.812500   0.734375 0
  0.875000   0.562500 0
  0.968750   0.656250 0
  0.796875   0.734375 0
  0.812500   0.828125 0
  0.578125   0.890625 0
  0.781250   0.687500 0
  0.984375   0.671875 0
  0.578125   0.828125 0
  0.812500   0.765625 0
  0.875000   0.593750 0
  1.000000   0.875000 0
  0.765625   0.937500 0
  0.843750   0.656250 0
  0.843750   0.859375 0
  0.609375   0.921875 0
  0.828125   0.687500 0
  0.937500   0.656250 0
  0.937500   0.859375 0
  0.703125   0.921875 0
  0.984375   0.640625 0
  0.890625   0.468750 0
  0.656250   0.734375 0
  0.890625   0.671875 0
  0.890625   0.875000 0
  0.656250   0.937500 0
  0.578125   0.859375 0
  0.812500   0.796875 0
  0.843750   0.890625 0
  0.609375   0.953125 0
  0.937500   0.875000 0
  0.687500   0.953125 0
  0.843750   0.953125 0
  0.828125   0.703125 0
  0.593750   0.765625 0
  0.937500   0.546875 0
  0.781250   0.531250 0
  0.781250   0.734375 0
  0.546875   0.796875 0
  0.796875   0.718750 0
  0.562500   0.984375 0
  0.984375   0.812500 0
  0.562500   0.812500 0
  0.796875   0.750000 0
  0.562500   0.875000 0
  0.796875   0.812500 0
  0.640625   0.750000 0
  0.875000   0.687500 0
  0.703125   0.671875 0
  0.937500   0.609375 0
  0.562500   0.843750 0
  0.796875   0.781250 0
  0.781250   0.750000 0
  0.781250   0.609375 0
  0.812500   0.953125 0
  0.812500   0.718750 0
  0.953125   0.593750 0
  0.718750   0.656250 0
  0.671875   1.000000 0
  0.796875   0.953125 0
  0.843750   0.609375 0
  0.812500   0.812500 0
  0.812500   0.781250 0
  0.750000   0.953125 0
  0.750000   0.750000 0
  0.984375   0.687500 0
  0.781250   1.000000 0
  0.765625   0.546875 0
  0.765625   0.750000 0
[...]
POINT_DATA 4072
SCALARS scalar_value float 1
LOOKUP_TABLE default
0.0212323
2.13391e-05
3.83231
5.46281e-07
1.61551e-09
0.068772
0.0074079
17.8599
0.000473304
2.42866e-06
3.6406e-06
1.18311
2.94273e-05
4.06444
5.91488e-06
6.49881e-06
9.19287e-07
4.60858e-06
2.05409e-06
1.52369e-08
1.32705e-08
4.91692e-08
0.000720231
0.000147182
0.267561
0.383428
2.25515e-06
0.208614
0.421639
19.0272
5.42608e-05
1.00674e-05
8.28414e-07
1.037e-07
0.578682
8.13718e-06
3.46654e-05
0.0587523
0.210066
2.93548e-06
1.99792
1.53543e-06
2.31696
4.58871e-06
1.71914e-05
2.98577
5.46089e-07
2.71557e-05
3.12308e-06
5.7236
0.000247045
8.77306e-10
0.191334
5.0794e-05
0.25146
0.0128304
9.26954e-07
2.93124e-07
3.67961e-09
6.48159
0.101938
9.5649
0.00182732
11.3907
1.09365e-06
6.57254
6.02351
2.92561e-05
5.82519e-09
0.00116578
0.00410332
8.64372e-05
0.00578062
0.367541
4.06827e-09
0.147373
1.28599
0.0176814
3.9376
1.06268
0.801823
0.381504
2.01387
0.172684
19.315
2.4903
0.22173
2.25312e-05
0
14.0112
0.447629
11.3823
0.615668
0.165075
0
2.22468
1.70219
0.0962877
7.3946
4.00333
0.00335863
0
0.0115194
0.0261787
3.22499
0.133529
0.079657
0.175868
0.0946971
0.206541
0
2.5111e-05
0.0104418
0.00834811
1.65994
0.757896
0.367373
0.504707
0.365359
0.00604611
0.000361174
0.00101502
0.55153
0.021948
0.00116332
0.122647
0.209657
0.268609
0.019295
1.86441e-05
0.1161
0.00018631
0.0576476
0.000148717
0.302425
0.0141916
5.83119
4.49445
2.39191e-05
4.50313
6.43133
0.00138691
0.0162071
0.0346574
5.41837
-3.10285e-09
0.51248
2.34291e-05
4.75447
0.00242503
0
8.98816e-06
0.00169104
3.89136e-07
0.00161033
13.1084
12.4679
1.88166e-05
4.91667e-10
0
3.16009e-10
6.66966e-05
0.0285982
0.683735
0.179285
0.0185348
1.1991
9.11976
0.0603979
0.223532
2.51367e-07
0.0153421
1.92082
0.0166249
0.0455473
0.035478
0.130073
2.29662
0.0881451
0.695974
0.401188
1.24448e-07
0.929872
1.11879e-07
0.000151418
0.0158516
14.6205
0.000118197
0.0404544
2.05373e-08
4.76034e-07
0.380668
0.00629914
11.5472
0.451329
0.00985719
7.94852
7.91434
7.47222
4.59733e-08
1.16283
0.898011
0.451687
7.02156
0.00575185
0.0614685
0.443807
16.4505
0.0220416
16.476
0.00012805
2.36542e-09
0.30625
1.00429e-08
1.15795e-09
0.506912
0.836406
15.0867
0.37305
11.6755
8.7746
0.00110523
2.38318
0.00132342
2.44961e-05
3.79585
7.88997e-06
14.1383
2.25112
2.94198
0.0672572
7.24668
0.000138948
2.23437e-07
3.58047
14.2125
0.00494146
1.51062e-06
0.0511889
7.86431
0.00190395
0.0156767
6.83116e-07
7.18008e-10
0.0209616
0.0220051
0.0205188
2.62836e-08
0.176089
0.28684
0.771787
1.3413
0.119143
7.80689e-06
0.00982303
1.2746e-06
3.47868
1.71105e-06
0.0201346
3.52672e-07
4.6613e-07
1.18557
0.0640396
6.62212e-09
0.00301944
0.1632
1.8024
2.22747e-08
0.00802845
0.000105422
0.799173
0
2.18318e-08
0.00229929
0.128422
9.74177e-05
1.6282
0.488055
0.168528
0.00216488
13.4688
2.83884
0.00100341
0.00139862
14.6949
15.6377
1.68957e-07
1.13608
2.01685e-08
0.105506
2.05867
0.00566392
4.10782e-06
0
7.46897e-08
0.00509766
7.57158e-06
8.56059
0.413006
-4.40492e-08
0.220274
0
0.00131462
0.000382778
0
0.000295235
0.0584178
1.3615e-06
9.12694e-09
0.0231083
6.57702e-06
4.85994
0.00428995
3.19418
1.53575
3.96885
7.81219e-06
0.00431322
4.09658e-07
1.02984
0.569269
0.0783832
0.0623609
2.65629e-05
0.00047115
10.6384
0.453313
0.0578145
0.353133
1.27353
0.0137864
18.3265
0.680355
0.0613715
0.881137
1.31633e-09
0.00047336
3.91086
1.31616e-06
0.00423819
1.58633e-07
0.000343267
0.175695
0.83978
0.000826317
1.98901e-05
1.46344
0.211783
1.37521
1.92915
5.46626e-06
8.53203
0.713773
0.00332817
6.1801e-10
0.000497502
0.116533
0.00113817
0.301724
0.363466
0.000305043
2.53595e-08
0.0446547
3.14528e-06
5.27087e-05
15.9779
0.0112307
5.36002e-07
0.0735826
3.93077
0.457255
1.443e-05
0.0525502
5.08715e-08
0.012476
1.32434e-05
0.413459
17.712
2.79621e-06
0.0655114
2.37395
13.9723
1.4399
0.00504199
2.2029e-08
11.3938
1.40538
2.48582
0.679228
16.763
0.035227
7.67451
9.10213e-05
6.07856
1.08901
2.28674
0.537936
7.85585e-05
0.82874
1.61017e-05
5.06158
0
0.000142601
0.0402008
0.325232
0.593285
0.000588975
4.93697
6.29062e-06
0
0.166997
3.46668
11.1779
0.00306797
0.121596
8.59619
0.800139
0.902787
1.46609
-8.43722e-09
0.582975
1.17143
0.0861904
1.51384e-05
2.95447e-08
4.12655e-05
7.37085
0.00019
0
0.000104255
9.64227e-08
1.20957
0.000219899
17.7825
9.79051
-6.8054e-09
0.573785
0.152783
5.14071
13.6562
6.06652e-05
16.2213
4.74412
17.8003
0.00607694
11.395
4.83334e-05
0.0828971
0.000367521
0
0.0526613
15.5218
16.778
-1.83392e-08
5.15168e-09
0
5.19971
0.000119426
3.46618e-06
0.0157633
0.126383
0.0172177
10.6198
3.21018e-05
0.026104
13.0746
1.63227e-08
0.00108427
0.000135486
0.00227571
5.31347e-06
0
0.00854907
1.81893e-06
5.75135e-07
4.54096e-07
1.42555e-07
0
0
1.46263e-06
0.344537
1.32509e-06
1.40041e-05
0.652652
2.6853e-06
4.56886e-06
0
0.370874
0.00683443
8.25119e-06
0
0
0.238762
0.006106
2.27312
0.0437463
0.0170771
16.9015
0.00403157
15.6638
0.0382864
15.838
0.0681053
17.2913
5.06936
4.32212e-06
0
0
0.0327267
2.97417
0
0.952354
0
0.000635024
0.905704
0
0.00165959
1.64774
0
1.68337
0
0
0.595629
0
0.00669639
6.49612e-08
0.281389
5.51202e-08
0.00105142
14.6242
1.57266e-10
0.00997915
1.7023
1.51091e-10
0.00280492
1.03772
0.698876
0
0.205748
16.8528
0.0949052
1.11693e-05
0.0155159
15.9395
0.220807
0.00428729
12.84
0.102194
0
1.94834e-06
3.6015
14.1659
0.0435366
0.00315446
2.33424
13.7989
9.2084
0.040738
0.00623765
0.0382545
2.58796
0.0125429
1.37174
0.320375
12.8606
0.0787849
10.0264
5.86999
9.12668
0.005138
0
0
0.00872008
0.00656509
0.00350082
0.00292495
2.46324e-07
1.41785e-06
1.61715
4.43263e-07
1.70583e-07
2.55645e-07
1.28289e-07
4.7802e-08
0.0204396
6.09099e-05
4.90375e-05
8.17051e-05
0.00464202
5.74237e-05
5.84416e-10
6.52478e-10
0.00637284
1.56125e-09
3.13023e-09
7.04051e-10
1.13919e-08
4.1617e-08
0
0
9.48955e-06
4.82237e-10
4.00239e-05
1.76005e-10
0
2.32973e-10
0.146243
0.0017963
0.000844771
-0.000517155
-3.28123e-05
0
1.31286e-09
2.17331e-09
0.000277692
1.95134
0.000211701
2.51988
5.96851e-05
2.83074e-05
2.17516e-07
0.0323785
1.08116e-07
1.4986e-07
4.43248e-07
0.133611
-1.87351e-07
-1.83163e-08
3.53252e-08
0.00293749
6.94561
2.51475e-05
3.79965e-06
9.2779e-07
0.000124588
0.731093
13.18
0.00392406
8.91777e-07
5.54283e-09
1.26414e-08
2.9283e-09
0.557431
0.761476
7.80033e-06
3.10612e-06
0.524125
5.00864e-05
1.2371e-07
4.07854
1.48279
9.27697e-05
4.76544
0.000438809
15.9682
0.1491
0.000278975
3.72959e-08
0.000575617
8.1527
0.000542993
0
3.68402e-06
1.20413e-06
0.391668
0.678775
1.46052
0.000904829
0.000748978
0.000100921
8.42393e-07
0
0.0100731
2.43479
0.00658198
10.7641
0.00235728
2.31074e-06
3.15841
6.13045
2.72311
8.57742
2.08529
2.58271
1.72832
4.0284
0.00148582
0.00118291
0.000332374
0.0378292
2.78286e-06
0.00101327
12.7143
0.525311
0
0
17.8456
6.70122
1.25178
0.781542
0.00481227
0
0
0
9.27204
5.20574
0.000647051
0
0.331166
0.00367347
0
0.00471715
0
16.4873
0.00118206
0.00576587
1.24744e-07
0.771121
9.93313
-1.58435e-06
2.17689
0.0891017
0
0
1.56038e-06
1.40647
14.3577
16.116
0.0212763
0
10.5396
11.5409
0.822377
0.00122152
0
10.8181
7.45413
14.8724
0
0.00784302
0
0
6.19513e-07
0
0
4.32061e-09
0
0
0.00597309
2.24412e-08
1.22526
6.16916
0.0645976
18.825
4.84519
0
7.09285e-09
0.0264499
1.62575
0.000706348
0.000199481
0.845796
0
0
2.84717e-09
0
0
0.000981835
3.07718e-09
1.65928
7.50515
1.58079
0.00131777
0
4.24652e-06
0.0663473
13.1175
0.396513
0
2.70613
1.9986
0.00065872
0.000667382
9.59365
9.32933
11.8311
5.36717
2.59389
6.94871
16.2236
2.61114e-07
12.0431
18.9484
12.939
3.86799
0.928152
1.91318
0.44988
14.1801
2.89507
11.1878
2.12018
1.62489e-05
0.88774
0.187723
2.22092
9.11879e-06
0.442576
3.35319
0
0.0990587
0
0.0248187
1.53714e-07
0.633859
7.26572
0.00582548
0
0.0564632
0
0
0.105251
14.1125
12.9145
1.92014e-06
1.4729e-05
6.96713e-05
0.936535
8.84969e-05
1.18638e-06
0.26165
3.6334
1.63207
15.1298
15.1329
14.268
5.05422
0.811811
3.0875
4.25018
2.89363
17.2417
3.05313
18.9287
2.43116
14.3483
0.000250828
0.312025
2.99751
1.36651
0.192137
0.0743346
0.465858
4.87245
0.115988
1.3011
0.0451309
2.83137
0.420738
0.929809
7.35353
0.907863
0.00176352
6.68698e-06
0.00446792
0
0
0
0.577325
0.331075
1.71684
0.000128423
5.11985
6.26006
0.000574535
19.6244
5.19893
0.165581
7.74266
8.76361
0.0220739
5.76449
12.9775
10.094
2.92148
6.67299
1.73153
0
13.7596
12.1702
12.9399
0.0705436
0
0.0151047
0
0
0
8.16227
3.22073
4.92685
1.78875
14.5411
12.3528
12.4173
10.1542
4.28523e-09
0.0277005
6.48596
14.5482
0.742904
5.88317
8.39355
1.70987e-08
2.43771e-07
0.204693
0.31661
1.40185
7.50031
12.4018
0.442343
0.893511
1.32862e-06
0.201244
0
0.00199174
4.27051
17.7651
0.0339616
0
14.0498
6.82472e-10
0.599112
11.0913
0.361462
0.068546
8.58767
0.000363219
0.81238
0.583564
8.53691
0.273161
4.63302
13.9821
0.0185068
0.625771
0
2.64113e-05
1.06868
0.0011925
0
0
0.0979822
0.00154821
0
0.000566043
0
2.04348e-08
0.19632
0
3.26878e-10
1.35801e-05
0
3.33174e-05
1.51009e-05
0.473307
2.12941e-06
4.38493
1.62966
0.00501371
8.40199e-10
0
2.07088e-06
5.12061e-09
7.19198e-06
1.05173
0.0302991
0.0415128
0
4.02963e-06
7.9533e-05
3.83817e-07
6.98785e-05
0
9.44211e-09
1.95249e-07
0.850666
4.18179e-10
1.71422
2.89886
8.43573e-07
0.000874472
1.32785
2.69772
1.71911e-09
2.65148e-06
4.67922e-06
0.260462
-8.38352e-09
2.32991e-05
0.000405785
4.59101
1.78315e-09
5.22797e-07
1.63978e-07
0
3.50637e-05
1.36535e-07
0.241262
8.31957e-07
0.000411557
0
0
0.34475
0.00737405
2.7155e-08
0
0
0.000355714
0.000453898
0
0.0537197
0
8.66095e-10
2.9055e-07
0.867887
0.100111
5.81661e-07
0.0153706
0
0.0307483
0
0
0
0
0
1.68158e-09
19.8394
2.4799e-06
0.00460216
0
0
0.144937
0
0
0
5.47535e-06
3.54592e-07
0
0
0
9.39229e-10
0.000456327
0.00631825
0.00145009
1.8623e-08
1.91709e-09
0.000342077
0.457439
1.0119e-07
7.92585e-10
0.000971047
0.000778777
0.000568247
1.40786e-07
7.52107e-08
3.51153
11.6966
0
2.15034e-08
0.00172538
0.0408304
9.12448e-07
0.00322895
1.90501e-08
0
7.32881e-08
0.000160851
0.0129734
4.72348e-05
7.93109e-07
1.41388e-05
0
0.00147245
0
0
3.76399e-07
8.5706
15.2141
0
0
2.33377e-10
1.88869e-07
1.00923e-05
0
4.35276e-07
2.66307e-06
0
1.34224e-07
1.96747
0
1.88163e-10
0.000674025
7.85602
19.0043
0.74858
0
0.0028466
0
0.000102502
1.05757e-10
0
0.000214693
0.000218898
0
0
0.000279279
0
1.78255e-06
0.0755653
4.00921e-05
0
9.30791e-08
0.544984
0.0699549
5.23948
0
0
4.27815e-05
4.99246e-07
0
0
3.09827e-05
0
6.16601e-09
7.22945e-09
2.20017
8.31079
0
5.45656e-09
1.01977e-09
1.24304
5.43458
0
1.11066e-09
2.62304e-05
3.40237e-07
6.61597e-05
3.1739e-06
3.00594e-05
0.0095544
0
0
0
0.0172354
0
8.8896e-10
0
0
0.000236604
8.85261e-06
0
0.000110821
2.30262e-06
0
0.000134276
7.11314e-10
3.79387
0.236875
1.4446e-09
4.04954
0
0
0
0.00597084
0.00532628
0
6.37617e-09
0
2.95988e-09
0
0
0.0539476
0.587318
0.410945
0
1.3839e-08
0
7.41142e-06
1.22952e-07
0
0
0.000346834
0
6.05672e-08
0.193059
2.01414e-09
5.18796e-07
0.443577
2.03832e-07
0
0
0.000184853
5.92606e-05
1.12732e-06
0.652645
1.54447e-07
0
0
0.000736809
9.57896e-07
0.00192928
4.74307e-08
0
0.00106351
2.16384e-06
0.00188661
0.00145168
4.04406e-08
0
0
1.50996e-09
3.51831e-06
0.611945
0.0112506
5.31482e-09
0
6.06138e-08
0
0
0
1.12095e-06
2.31626e-05
0
0
0
0
0.000128782
3.51484e-06
0.00190103
1.23471e-06
3.78372e-08
0
0
1.09699e-08
3.47268e-06
1.92253e-08
0
1.42222e-06
0.329685
0.00385385
5.44821e-09
0
5.60675e-09
1.14222e-08
0.985543
0
0
0
7.02784e-08
0
1.86506e-07
3.04254e-06
0.457778
0.00441316
3.30487e-08
0
0.000232269
0.0208327
0
0.0163034
2.42706e-10
3.14241e-06
1.35909e-07
6.80386
2.83225
0.011019
3.25228e-09
0
0
0
0
2.14549e-09
3.92816e-05
0
0.0164933
0.0217193
0
0
0
9.66225
4.50475
0.0219189
1.10734e-08
0
0
0
0
0.000119647
0.0393224
1.89026e-09
0.00402483
1.01428e-08
1.39811e-08
0.0496918
0.000782431
0.000456422
-2.17695e-09
11.9492
0.21932
4.25027e-05
0.00012175
8.90371
0.00140028
4.19778e-09
5.27258e-06
3.64348e-06
9.28336
6.50873
0
0.000527449
0
0
2.92118e-08
1.87098e-09
0.000138057
0.0293854
19.3612
0
4.69114e-07
3.44682e-08
0.000460886
5.1884e-08
0
0.00544576
0.00364157
0
6.66654e-08
1.09075e-08
0.00017387
0.0471273
0
2.47965e-08
9.62073e-05
1.07166e-08
3.72774e-09
0
1.81805e-09
4.19275e-09
0.00152826
2.96549e-10
1.024e-10
0.000296139
0
0
9.7735e-07
0.0147401
4.85392e-07
0
1.41589e-06
0.000772905
2.62415e-05
0.0340604
8.1366e-05
0.000275697
0.511189
0
0
0
0.00189888
8.20462e-08
0
0.350829
0
0.00331112
0.00027611
5.40292e-08
1.67393e-07
0.0755377
0.000196688
1.58718e-05
1.0514
0.0233081
6.0841e-09
1.24048e-09
0.00200781
1.67515e-09
0.314269
4.73656e-07
0.0021357
8.59816e-08
6.40042e-09
0.00144784
0.00197974
4.70497e-05
2.20211e-07
4.89409e-07
0.121539
0.000200119
0
0
9.23622e-08
0
7.84086e-10
1.68531e-07
2.92173e-07
0
0
5.15313e-09
0.0405783
0.000573181
0
2.52623e-06
0.0412613
10.1447
0.000219791
0.00202725
0.0155109
0.236945
5.22328e-09
1.30204e-07
1.85027e-08
0.00289589
0
0
4.58138e-09
0.216874
0.025111
9.81566e-07
9.56315
1.50255
0.000456073
0.0331069
0
0
4.29218e-08
1.57109
1.29179
0.000628128
0.000516562
0
0.00196554
0.000101331
1.22006e-07
0.000389372
1.11076e-07
0.00527652
0
9.43408e-07
3.26596e-09
0
0
0
0.0384624
0
0
2.3826e-06
2.96038e-05
0
0.000274968
3.46268
0.0243806
0.000932097
0.001157
0
0
0.382996
1.55045e-06
0
11.9771
0.046869
0.0686594
0
0
0.0108573
0.113815
0.00255687
4.75856e-10
0
0.0751349
0.00280264
2.00834e-10
9.49389e-09
0.0183882
1.276e-08
0
0
0.0237976
0
0
8.21643e-07
0
1.73055e-08
0
0
0
4.49098e-05
1.09218e-06
14.9119
5.05037
7.04677e-08
0
0.489223
8.35417e-05
6.89453e-05
1.20463e-10
-1.98343e-09
0
8.01389
9.66496e-05
0.0378906
5.35468e-06
2.68346e-05
3.26392e-08
1.57038e-08
0
0
3.25996e-07
2.64043e-09
0.0158628
0.000158024
0
0
0
2.29321e-08
2.27418e-06
0
0.000189277
0
6.05156e-09
0.0649664
5.68766e-09
5.97857e-09
5.73576e-07
0.386295
1.04618e-10
8.40625e-07
0
2.68561e-05
2.07058e-06
1.25997e-10
0
0.00103304
0.000132453
2.16731e-06
1.67937e-05
7.11127e-05
0
2.81606e-05
6.78637e-05
0
4.94498e-07
1.02162e-09
0
0
4.706e-10
1.247e-08
1.93606e-05
0
0.000134937
1.31992e-05
0
4.91361e-07
1.14472e-07
3.8155e-06
0.00117273
0.0759074
0.000256045
0.0215094
0
4.33322e-05
0
0
1.24875e-07
1.62355e-09
0
0.00556402
1.70522e-05
0.00275453
0
0
0.0828387
0
1.53783e-08
0
0.00064847
2.43211e-10
0
0.00229078
7.25908e-05
0
2.76853e-05
9.00421e-07
0.010991
0
0.0937827
6.58544e-10
0.106916
7.48548e-10
4.98721e-07
1.63738e-05
0.002475
8.03677e-06
0.0102812
2.6602e-06
6.69515e-10
3.91522e-09
2.08915e-07
0
10.9673
0.000394019
1.86045e-09
3.68366e-09
0.000716778
3.80573e-08
0.107974
0
0
0.00483171
0
5.86707e-10
0
0
0
4.88941e-07
0
0
0
0.00530037
0
0.146488
0
0
4.92203e-09
2.0401e-09
0.0625942
0.00424922
6.46148
0.834208
0.0200731
0.0598249
0.0272402
0
1.11906e-08
0
0
0.000177041
0
8.19471e-07
0
0
0.000101617
5.00932e-05
0
2.81023e-10
1.16121e-10
0
0.000172568
0
3.37383e-05
0
0
1.922e-06
11.2242
0
5.99985e-06
2.28719e-08
0.19628
0.217039
0
0
2.5568
1.96606
0.00187346
0.00110737
0
0.00292668
0.127004
0
0
4.98463e-08
1.633e-09
0.000220665
0.00635838
0
0
9.27144e-05
0.00010792
0
1.25759e-07
0.00015248
0.000121762
4.73053e-10
5.9739e-10
-5.79251e-09
0
0
0
0
2.54889e-06
0.504343
0
2.05334e-08
3.79064e-07
8.52128e-09
0.00635809
0.0227727
0.000560091
5.36021e-08
4.18639e-07
0.212855
4.97522e-06
2.64903e-06
0
5.34611e-06
0.00023954
2.35966e-10
0.000662728
0.248117
1.03101e-07
0
0.00595703
0.00248692
0
1.31772e-08
4.35837e-07
1.12655e-06
0.329093
0.00135256
0
0
2.65347e-10
0.00202986
0.000208582
1.47339
4.19953e-05
2.89077
1.08161e-07
0.000989051
8.38988e-10
0
9.58021e-09
0
1.13092e-07
0.00430927
0
2.62328e-10
6.57918e-06
0
0
0
6.81448e-07
3.41364e-07
0
1.33683e-07
8.3757e-07
0.0250358
0
7.39874e-09
2.04787
0.00891551
0.0532671
0.219891
0
1.37651e-08
0.208397
-1.08706e-08
5.20906e-06
1.07599e-07
0
0
7.91717e-05
1.47823e-06
0.000337405
9.94894e-09
4.8659
9.41245e-09
0.000310146
10.7571
1.72338
0
0.00806104
2.73574e-07
1.02904e-06
0.238092
0.00136541
0.0101027
1.42519e-06
20.0135
1.17204e-10
1.1056e-06
1.52603
1.20846e-10
9.17797e-05
0.000146615
1.03826
0
0
0.244762
-6.00356e-09
1.11925e-05
7.63259e-07
2.8599e-05
0.000423271
0.0122556
0.000380322
0
1.85989e-09
0
4.28042e-05
0
0
6.06559e-07
2.2071e-08
2.63003e-09
0.00185307
2.65619e-06
0
0
0
0.000100168
6.12301e-08
0
5.36304e-08
0.103766
0.0035017
1.33543e-09
2.20975e-05
0.663432
0
1.69316e-07
0
3.12343e-06
0.000559495
0.208465
0
0
5.28812e-07
1.40936e-07
0
0.0200382
1.10393e-05
0.00297242
2.64883e-07
9.68366e-07
1.41138e-10
0
0
1.04214e-07
4.41087e-08
1.14229e-06
0.0617186
0.0372183
0.0281056
0
4.66924e-08
1.40955e-05
0
0
0.000184372
2.28296
2.52414e-07
8.29186e-06
-3.32976e-10
0.0206735
0
0
4.60475e-10
0.00376029
2.91826e-05
4.41445e-10
0.00350573
7.08911e-05
0
1.56147e-05
5.66382e-08
0
0.0864069
0
5.01494e-06
6.20297e-06
0
0
0
0.0028442
6.24973e-06
0
0
1.97944e-05
2.83212e-05
0.00541125
0.0010487
9.5597e-08
1.22025e-10
0.0760575
8.81844
8.26401e-05
11.2971
1.19186e-06
0.00025752
5.38106e-07
6.00311e-06
0.594764
0.00444736
0
0
5.76284e-08
0
1.63561e-05
6.86234e-07
3.48769e-07
6.268e-10
2.07435e-09
0.000217336
0.000187992
0.000120316
1.28287e-08
2.79232e-10
9.80603e-05
0.0177495
4.22194
2.13109e-06
0.00261165
0.00231706
2.01083e-07
1.73422e-08
0
3.68171e-07
0.269553
3.77597
0.00116211
0.000503142
4.83273
0.0158447
0.224343
0
5.98641
0.000995746
0
8.93092e-09
1.82544e-08
1.31196
0
0
0
0
5.93145e-05
0
0
0.00528329
9.48606e-06
0
0
3.66724e-07
0.000398885
0.0104804
0.000129185
0.00219359
0
8.64373e-08
0.0899444
0.00238029
0.00122406
8.08286e-09
15.8401
0
1.39362e-07
1.56246e-08
0.00514959
5.40528e-08
0.0646266
0.00127453
2.60677e-10
0
0.0632383
0
0.00117943
5.88775e-05
0.00567364
0
0
3.35715e-08
1.17018e-05
0.00253864
1.13998e-10
0
1.16085e-06
1.36874e-08
0
2.27364e-06
3.23947e-08
0.0079731
0.00343028
2.27077e-05
0.000574604
0.0378242
0.0135894
1.18377e-06
2.70034e-06
0.353801
7.27236e-10
0.000103534
2.65772e-07
3.5506
0.00155875
7.29402e-10
2.16538e-10
0.000898661
0.000367807
2.5502e-10
0
0.000509157
0
0
6.28442e-06
1.32636e-05
2.45523e-05
0
0
4.73294e-05
6.69392e-10
0.169608
0.0341035
6.31023e-05
0
0.000429859
1.15901e-05
3.07805e-09
0.00029417
8.58377e-07
0.000196201
1.9406e-08
0.000357365
2.79392e-05
0
1.8835e-09
6.10711e-08
6.026e-05
3.84221e-06
8.46086e-09
2.49574e-06
8.33846e-06
0.000644703
3.31497e-05
3.80914e-07
2.13394e-05
1.2563e-06
5.25585e-06
3.2969e-06
0
0.000220211
1.03509e-06
3.65681e-06
1.04827e-09
0.985916
0.307933
0.326005
9.43925e-05
2.28208e-10
0
0.000590696
1.84677e-05
9.5242e-06
0.00133022
3.41127e-05
6.40396e-05
8.01009e-06
0
0.000479349
2.60727e-06
1.67019
6.69453e-06
1.37587e-05
0
1.42981e-07
0
0.00230634
0.00146029
4.33154e-09
8.22002e-05
0
0.000226896
0.0110107
8.03463e-07
1.42869e-05
0
0.000509046
2.4536e-06
1.41811
0.000155717
4.38608
0.000843102
4.491e-09
6.48716e-07
9.61481e-05
4.91199e-07
0.000160867
0.011325
0.00795854
0
2.04978e-08
2.60805e-08
0.000112168
0
3.49098e-08
0.000201656
0.000499986
1.63022
4.22888e-10
5.74886e-07
4.23145e-10
0.120706
0.235754
0
0
0
0
1.89011e-06
1.5426e-07
4.29801e-06
8.427e-05
7.55606e-10
0.119772
0.0152063
0
9.23044e-05
3.73204e-07
0.00331588
2.24563e-07
2.49898e-06
0.00021654
4.50226e-10
2.17665e-08
5.92284e-06
7.48907e-06
0.0194006
0.0105848
0
0
6.49356e-09
4.99467e-08
8.56776e-05
1.46514
1.46712e-08
7.9778e-08
6.15853e-06
0.4679
0.00116223
4.02168e-05
0.000900476
0.0255992
5.01351e-06
8.73316e-06
0.548389
4.37737e-08
5.59839e-07
0.0139821
0
5.36092e-06
0.000334536
2.83044e-06
1.3207e-05
0.00095057
0.0054426
1.48577e-09
8.8559e-08
0.110009
0.110915
-0.000542821
2.7531e-10
3.71453e-05
4.887e-08
2.5322
3.24497e-05
4.52407e-05
0
0
1.50839e-07
1.78794e-05
1.1302
0.0136911
0
2.0227e-07
0
2.56098e-07
1.99697e-05
0.0231521
1.63745e-09
4.547e-10
0.0405052
0.00248829
5.97267e-09
2.97799e-08
0.00167771
2.32486e-10
0.0189932
0
2.90855e-08
6.83209e-08
0.124929
0.00118604
18.5881
8.37087e-06
0
3.73718e-06
2.84519e-08
1.54128e-10
0.051184
4.26233e-07
1.4386e-06
1.19661e-05
0.764082
0.00384568
1.36698e-06
0
7.9113e-08
1.5811e-09
0
0.0371051
0.00366299
2.65203e-06
0
0
3.29961e-08
0.000151618
0.0960484
1.60354e-08
1.67989
1.65384
0
5.84183e-10
0
0.00140817
1.01915
3.07666e-07
2.16735e-06
0.0598775
0
0
5.35134e-07
0