# vtk DataFile Version 2.0
Unstructured Grid by M++
ASCII
DATASET UNSTRUCTURED_GRID
POINTS 4072 float
  0.562500   0.968750 0
  0.906250   0.500000 0
  0.750000   0.781250 0
  0.953125   0.531250 0
  0.984375   0.875000 0
  0.828125   0.828125 0
  0.828125   0.859375 0
  0.562500   0.765625 0
  0.937500   0.687500 0
  0.968750   0.578125 0
  0.968750   0.781250 0
  0.734375   0.843750 0
  0.968750   0.718750 0
  0.734375   0.796875 0
  0.984375   0.718750 0
  0.984375   0.703125 0
  1.000000   0.750000 0
  0.984375   0.734375 0
  1.000000   0.718750 0
  0.953125   0.859375 0
  0.953125   0.843750 0
  0.937500   0.843750 0
  0.921875   0.640625 0
  0.937500   0.625000 0
  0.671875   0.906250 0
  0.687500   0.890625 0
  1.000000   0.687500 0
  0.828125   0.796875 0
  0.828125   0.750000 0
  0.515625   0.750000 0
  0.828125   0.937500 0
  0.968750   0.625000 0
  0.984375   0.593750 0
  0.984375   0.796875 0
  0.750000   0.859375 0
  0.859375   0.937500 0
  0.828125   0.953125 0
  0.859375   0.781250 0
  0.593750   0.515625 0
  0.984375   0.750000 0
  0.734375   0.828125 0
  1.000000   0.734375 0
  0.750000   0.812500 0
  0.953125   0.562500 0
  0.968750   0.750000 0
  0.734375   0.812500 0
  0.968750   0.546875 0
  0.843750   0.906250 0
  0.875000   0.875000 0
  0.578125   0.640625 0
  0.750000   0.968750 0
  0.984375   0.906250 0
  0.625000   0.515625 0
  0.937500   0.593750 0
  0.781250   0.578125 0
  0.640625   0.968750 0
  0.937500   0.531250 0
  0.937500   0.515625 0
  0.953125   0.500000 0
  0.703125   0.796875 0
  0.859375   0.718750 0
  0.703125   0.765625 0
  0.921875   0.703125 0
  0.687500   0.765625 0
  0.921875   0.500000 0
  0.718750   0.781250 0
  0.734375   0.765625 0
  0.968750   0.687500 0
  0.968750   0.890625 0
  0.734375   0.953125 0
  0.859375   0.828125 0
  0.890625   0.484375 0
  0.843750   0.843750 0
  0.828125   0.765625 0
  0.968750   0.906250 0
  0.796875   0.578125 0
  0.765625   0.828125 0
  0.609375   0.968750 0
  0.734375   0.656250 0
  0.671875   0.875000 0
  0.531250   0.906250 0
  0.546875   0.921875 0
  0.765625   0.656250 0
  0.531250   0.937500 0
  0.531250   0.734375 0
  0.765625   0.671875 0
  0.843750   0.734375 0
  0.843750   0.937500 0
  0.609375   1.000000 0
  0.593750   0.796875 0
  0.828125   0.734375 0
  0.578125   0.812500 0
  0.671875   0.562500 0
  0.781250   0.562500 0
  0.656250   1.000000 0
  0.765625   0.796875 0
  0.656250   0.593750 0
  0.796875   0.562500 0
  0.625000   0.828125 0
  0.625000   0.625000 0
  0.859375   0.562500 0
  0.796875   1.000000 0
  0.890625   0.781250 0
  0.875000   0.781250 0
  0.625000   0.859375 0
  0.843750   0.781250 0
  0.859375   0.765625 0
  0.843750   0.765625 0
  0.859375   0.750000 0
  0.843750   0.750000 0
  0.765625   1.000000 0
  0.781250   0.984375 0
  0.875000   0.625000 0
  0.875000   0.812500 0
  0.640625   0.875000 0
  0.562500   0.906250 0
  0.796875   0.843750 0
  0.796875   0.828125 0
  0.656250   0.906250 0
  0.890625   0.640625 0
  0.875000   0.843750 0
  0.859375   0.843750 0
  0.625000   0.906250 0
  0.812500   0.875000 0
  0.859375   0.515625 0
  0.812500   0.843750 0
  0.796875   0.875000 0
  0.796875   0.859375 0
  0.593750   0.968750 0
  0.859375   0.875000 0
  0.625000   0.937500 0
  0.843750   0.875000 0
  0.593750   0.953125 0
  0.859375   0.859375 0
  0.828125   0.671875 0
  0.890625   0.765625 0
  0.656250   0.828125 0
  0.656250   0.625000 0
  0.890625   0.562500 0
  0.640625   0.843750 0
  0.640625   0.640625 0
  0.875000   0.578125 0
  0.890625   0.750000 0
  0.875000   0.765625 0
  0.562500   0.625000 0
  0.968750   0.500000 0
  0.734375   0.562500 0
  0.937500   0.578125 0
  0.703125   0.640625 0
  0.656250   0.984375 0
  0.640625   1.000000 0
  0.953125   0.578125 0
  0.671875   0.984375 0
  0.906250   0.921875 0
  0.921875   0.687500 0
  0.671875   0.765625 0
  0.687500   0.750000 0
  0.906250   0.484375 0
  0.984375   0.921875 0
  0.734375   1.000000 0
  1.000000   0.906250 0
  0.750000   0.984375 0
  0.828125   0.843750 0
  0.593750   0.906250 0
  0.828125   0.640625 0
  0.843750   0.828125 0
  0.609375   0.890625 0
  0.609375   0.687500 0
  0.843750   0.625000 0
  0.734375   0.875000 0
  0.968750   0.812500 0
  0.859375   0.812500 0
  0.625000   0.875000 0
  0.859375   0.609375 0
  0.843750   0.812500 0
  0.859375   0.796875 0
  0.828125   0.812500 0
  0.593750   0.875000 0
  0.828125   0.609375 0
  0.781250   0.843750 0
  0.515625   0.921875 0
  1.000000   0.781250 0
  0.765625   0.843750 0
  1.000000   0.578125 0
  0.765625   0.968750 0
  0.890625   0.703125 0
  0.656250   0.765625 0
  0.890625   0.500000 0
  0.875000   0.703125 0
  0.937500   0.937500 0
  0.984375   0.578125 0
  0.578125   0.531250 0
  0.875000   0.609375 0
  0.640625   0.671875 0
  0.796875   0.625000 0
  0.859375   0.593750 0
  0.625000   0.656250 0
  0.609375   0.671875 0
  0.593750   0.687500 0
  1.000000   0.562500 0
  0.765625   0.625000 0
  0.656250   0.578125 0
  0.625000   0.546875 0
  0.671875   0.812500 0
  0.906250   0.750000 0
  0.796875   0.546875 0
  0.828125   0.718750 0
  0.578125   0.781250 0
  0.875000   0.656250 0
  0.640625   0.718750 0
  0.734375   0.984375 0
  0.968750   0.921875 0
  0.609375   0.531250 0
  0.953125   0.921875 0
  0.968750   0.937500 0
  0.593750   0.546875 0
  0.765625   0.609375 0
  0.531250   0.671875 0
  0.781250   0.593750 0
  0.546875   0.656250 0
  0.656250   0.656250 0
  0.890625   0.593750 0
  0.656250   0.859375 0
  0.921875   0.671875 0
  0.968750   0.734375 0
  0.718750   0.812500 0
  0.812500   0.984375 0
  0.562500   0.796875 0
  0.750000   0.640625 0
  0.765625   0.687500 0
  0.531250   0.953125 0
  0.687500   0.656250 0
  0.921875   0.593750 0
  1.000000   0.593750 0
  0.750000   0.671875 0
  0.671875   0.750000 0
  0.906250   0.687500 0
  1.000000   0.656250 0
  0.812500   0.562500 0
  0.687500   0.796875 0
  0.921875   0.734375 0
  0.828125   0.546875 0
  1.000000   0.625000 0
  0.953125   0.968750 0
  0.750000   0.906250 0
  0.515625   0.968750 0
  0.812500   0.531250 0
  1.000000   0.796875 0
  0.515625   0.937500 0
  0.750000   0.875000 0
  0.812500   0.703125 0
  0.796875   0.703125 0
  0.812500   0.593750 0
  0.937500   0.562500 0
  0.656250   0.968750 0
  0.890625   0.906250 0
  0.703125   0.625000 0
  0.953125   0.546875 0
  0.671875   0.953125 0
  0.906250   0.890625 0
  0.984375   0.781250 0
  0.796875   0.687500 0
  0.562500   0.953125 0
  0.968750   0.875000 0
  0.718750   0.953125 0
  0.562500   0.937500 0
  0.781250   0.781250 0
  0.953125   0.875000 0
  0.718750   0.937500 0
  0.953125   0.671875 0
  0.796875   0.656250 0
  0.828125   1.000000 0
  0.953125   0.890625 0
  0.703125   0.968750 0
  0.828125   0.625000 0
  0.781250   0.968750 0
  0.781250   0.671875 0
  0.781250   0.875000 0
  0.546875   0.937500 0
  0.906250   0.640625 0
  0.671875   0.703125 0
  0.640625   0.609375 0
  0.875000   0.546875 0
  0.906250   0.625000 0
  0.656250   0.703125 0
  0.656250   0.718750 0
  0.968750   0.531250 0
  0.734375   0.593750 0
  0.984375   0.531250 0
  0.781250   0.546875 0
  0.718750   0.609375 0
  0.906250   0.703125 0
  0.968750   0.593750 0
  0.687500   1.000000 0
  0.921875   0.937500 0
  0.906250   0.765625 0
  0.906250   0.562500 0
  0.718750   0.750000 0
  0.718750   0.546875 0
  0.953125   0.484375 0
  0.796875   0.593750 0
  0.515625   1.000000 0
  0.750000   0.937500 0
  0.906250   0.593750 0
  0.546875   1.000000 0
  0.781250   0.937500 0
  0.828125   0.593750 0
  0.984375   0.609375 0
  0.937500   0.953125 0
  0.796875   0.515625 0
  0.968750   0.609375 0
  0.734375   0.671875 0
  0.906250   0.781250 0
  0.671875   0.843750 0
  0.515625   0.890625 0
  0.687500   0.625000 0
  0.921875   0.562500 0
  0.843750   0.531250 0
  1.000000   0.765625 0
  0.750000   0.843750 0
  0.812500   0.671875 0
  0.687500   0.921875 0
  0.765625   0.515625 0
  0.953125   0.609375 0
  0.921875   0.625000 0
  0.687500   0.687500 0
  0.812500   0.656250 0
  0.812500   0.859375 0
  0.578125   0.921875 0
  0.796875   0.765625 0
  0.890625   0.687500 0
  0.578125   0.750000 0
  0.812500   0.687500 0
  0.578125   0.953125 0
  0.796875   0.796875 0
  0.984375   0.890625 0
  0.734375   0.968750 0
  0.718750   0.640625 0
  0.968750   0.562500 0
  0.687500   0.968750 0
  0.921875   0.906250 0
  0.765625   0.953125 0
  0.812500   0.609375 0
  0.812500   0.734375 0
  0.875000   0.562500 0
  0.968750   0.656250 0
  0.796875   0.734375 0
  0.812500   0.828125 0
  0.578125   0.890625 0
  0.781250   0.687500 0
  0.984375   0.671875 0
  0.578125   0.828125 0
  0.812500   0.765625 0
  0.875000   0.593750 0
  1.000000   0.875000 0
  0.765625   0.937500 0
  0.843750   0.656250 0
  0.843750   0.859375 0
  0.609375   0.921875 0
  0.828125   0.687500 0
  0.937500   0.656250 0
  0.937500   0.859375 0
  0.703125   0.921875 0
  0.984375   0.640625 0
  0.890625   0.468750 0
  0.656250   0.734375 0
  0.890625   0.671875 0
  0.890625   0.875000 0
  0.656250   0.937500 0
  0.578125   0.859375 0
  0.812500   0.796875 0
  0.843750   0.890625 0
  0.609375   0.953125 0
  0.937500   0.875000 0
  0.687500   0.953125 0
  0.843750   0.953125 0
  0.828125   0.703125 0
  0.593750   0.765625 0
  0.937500   0.546875 0
  0.781250   0.531250 0
  0.781250   0.734375 0
  0.546875   0.796875 0
  0.796875   0.718750 0
  0.562500   0.984375 0
  0.984375   0.812500 0
  0.562500   0.812500 0
  0.796875   0.750000 0
  0.562500   0.875000 0
  0.796875   0.812500 0
  0.640625   0.750000 0
  0.875000   0.687500 0
  0.703125   0.671875 0
  0.937500   0.609375 0
  0.562500   0.843750 0
  0.796875   0.781250 0
  0.781250   0.750000 0
  0.781250   0.609375 0
  0.812500   0.953125 0
  0.812500   0.718750 0
  0.953125   0.593750 0
  0.718750   0.656250 0
  0.671875   1.000000 0
  0.796875   0.953125 0
  0.843750   0.609375 0
  0.812500   0.812500 0
  0.812500   0.781250 0
  0.750000   0.953125 0
  0.750000   0.750000 0
  0.984375   0.687500 0
  0.781250   1.000000 0
  0.765625   0.546875 0
  0.765625   0.750000 0
[...]
POINT_DATA 4072
SCALARS scalar_value float 1
LOOKUP_TABLE default
1.56207e-06
0.00660566
0.466541
0.000293437
0
0.00219249
-7.83674e-05
0.938274
0.000212359
0.000104324
4.49772e-09
0.0502529
1.36506e-06
0.389862
1.16488e-07
3.4978e-07
1.03997e-10
2.46702e-08
1.58453e-08
0
5.76039e-10
-6.08608e-09
0.00191393
0.000664791
0.0044011
0.0083716
1.74855e-07
0.0235268
0.118635
0.932923
-1.33836e-08
3.78264e-05
1.44433e-05
-1.18669e-10
0.0163326
-1.29602e-09
-6.13307e-09
0.00507145
0.711065
1.72051e-09
0.130309
2.03652e-09
0.222448
0.000475285
7.94957e-08
0.249228
0.0001384
-8.53061e-08
-4.8248e-08
0.921009
1.99705e-09
0
0.701282
0.00096407
0.595951
4.52571e-06
0.000411324
0.000293055
0.000172038
0.519822
0.0477163
0.763708
0.000651364
0.810124
0.000673164
0.592953
0.647968
6.3286e-06
0
-5.37429e-07
-1.33943e-05
0.0178499
-1.19503e-05
0.0799212
0
0.481832
0.134053
-6.82129e-07
0.886021
0.0424634
0.0215725
0.00585281
0.771149
0.00120968
0.956751
0.770777
0.0795465
-5.21278e-09
0
0.809683
0.159549
0.692608
0.759872
0.567913
0
0.297149
0.861729
0.455233
0.492597
0.916778
0.0414312
0
0.0006064
0.00164856
0.19169
0.0163683
0.0119835
0.0329532
0.0219201
0.0546969
0
0
0.0401814
2.51485e-05
0.0782794
0.0199625
0.0429622
0.0661136
0.00721655
0.0166694
3.30105e-07
3.7859e-06
0.0130277
-0.000333782
0.0433747
0.00653848
0.0179844
0.0277008
-1.41948e-06
3.79989e-07
0.000740033
-3.79552e-06
0.000119917
-1.26818e-06
0.277482
0.0013173
0.404751
0.929099
0.00211129
0.296051
0.946128
0.0159156
0.00247326
0.00408066
0.925333
7.68142e-05
0.778717
0.00109578
0.926501
-2.01694e-07
0
0.000405678
1.13573e-08
0
0.000939495
0.847771
0.873634
0.00605163
0
0
0
-3.89113e-10
-8.1698e-06
0.0173228
0.287809
3.98242e-05
0.044748
0.95195
0.167895
3.28387e-05
-6.53681e-10
5.75083e-05
0.0939612
0.0798954
0.00122957
0.00130487
0.00905751
0.116309
0.26713
0.0880543
0.00617541
0
0.0849421
6.05543e-06
-2.38203e-10
0.00871123
0.878068
0.0183153
0.0249459
0
2.03815e-05
0.755993
0.0359812
0.968356
0.545335
0.0681147
0.953041
0.944395
0.931241
8.22432e-06
0.751576
0.794398
0.752716
0.504508
0.000661751
0.428007
0.198638
0.893784
0.0398337
0.964698
-3.10583e-09
0
0.732104
0
0
0.771737
0.734115
0.974988
0.621302
0.967561
0.959587
0.0119254
0.134828
0.00126519
4.39282e-07
0.298727
-1.67062e-10
0.802378
0.831074
0.761372
0.000136647
0.948915
0.00233567
4.32032e-06
0.840992
0.900252
0.0035225
7.42952e-07
0.330323
0.588856
0.000249115
0.193823
2.00793e-06
0
5.09777e-05
-1.34276e-05
0.288604
0
0.00118046
0.00289713
0.365235
0.506764
0.377218
0.000932223
4.79768e-06
-2.29183e-10
0.911973
0.000392621
3.31737e-05
4.85564e-10
1.05398e-10
0.535703
0.000145858
0
-5.76369e-07
0.00115703
0.311739
0
9.79153e-06
6.34831e-05
0.558888
0
0
3.78261e-07
0.280895
-2.21704e-09
0.67451
0.0611909
0.00120313
0.00598904
0.961008
0.899916
0.017958
0.00629753
0.966554
0.959362
0.000121374
0.826752
3.35946e-05
0.537616
0.876242
0.00259318
7.50105e-05
0
0
0.000360606
0.00173812
0.794461
0.777807
7.7447e-05
0.506774
0
6.28825e-07
0.00524852
0
-1.87954e-08
0.248966
1.00361e-05
0
0.372359
5.33069e-05
0.889452
0.000186817
0.204313
0.062415
0.922421
0.0012963
0.0968672
0
0.054926
0.414237
0.000507562
0.556756
0.000230213
0.0021727
0.956181
0.422914
0.000564925
0.00524489
0.276332
0.0112864
0.969748
0.39519
0.000133849
0.147701
0
1.60364e-08
0.907356
0.000133776
1.37003e-06
0
1.40549e-09
0.397568
0.274967
0.0106437
1.76141e-05
0.41069
0.0184917
0.0533438
0.661287
1.60178e-06
0.545549
0.163165
0.0282768
0
1.15507e-08
0.171118
9.15455e-06
0.00423503
0.259274
0.000416858
9.5403e-10
0.000161834
4.50766e-06
0.0162988
0.945257
0.0136848
1.66519e-09
0.000395938
0.236321
0.0693855
7.48824e-07
0.000108917
1.4197e-10
1.27958e-05
-1.62844e-09
0.232611
0.949235
0.000611047
0.505531
0.5431
0.790598
0.46498
-2.5163e-06
0
0.689192
0.346206
0.127802
0.100248
0.938133
0.0310301
0.942308
0.000805212
0.389574
0.20787
0.474659
0.64316
-1.60735e-08
0.324638
0.00030723
0.916996
0
-1.777e-08
0.156875
0.0386254
0.111584
4.34391e-08
0.671687
8.13796e-07
0
0.628993
0.584909
0.675054
0.00533903
0.00110129
0.546792
0.219502
0.119631
0.0580685
1.25448e-05
0.712749
0.167841
0.17278
-1.82143e-10
9.49345e-05
0.000173663
0.919984
-3.28764e-08
0
-4.40852e-08
3.23112e-05
0.800808
-1.18429e-08
0.90688
0.716151
3.13807e-05
0.75667
0.665119
0.740515
0.77296
-3.00286e-09
0.867346
0.818228
0.899212
0.00177688
0.766412
0.00193516
0.0732373
0.00678204
0
0.0886712
0.969563
0.967336
2.50296e-05
0
0
0.45046
5.14326e-06
0
0.0413213
0.677327
0.00412735
0.702524
-2.23771e-09
0.0875416
0.970216
0
7.762e-08
2.32455e-05
0.0151544
-2.11085e-10
0
0.0155861
0
0
0
0
0
0
0
0.422181
0
-8.33072e-10
0.815171
-2.45687e-10
-3.27909e-10
0
0.774902
3.18735e-06
-1.16758e-07
0
0
0.28691
0.00112793
0.863683
0.012766
0.0062501
0.955026
0.0044755
0.920663
0.0904173
0.970714
0.0827185
0.961823
0.788084
2.80252e-06
0
0
0.308534
0.884598
0
0.803711
0
0.0251459
0.795208
0
0.0419599
0.859108
0
0.859867
0
0
0.751393
0
2.41103e-06
0
0.742558
0
5.91548e-09
0.932374
0
0.18246
0.854294
0
0.0946652
0.820333
0.788564
0
0.12863
0.92999
0.0611743
5.24611e-09
2.05852e-06
0.88918
0.105003
-2.80563e-06
0.776987
0.0341947
0
3.89066e-07
0.654628
0.841518
0.0186449
-8.73511e-07
0.597097
0.780438
0.611579
0.00781169
0.172706
0.400718
0.883014
0.269183
0.839331
0.528368
0.968665
0.353734
0.957585
0.920206
0.94412
-2.71074e-06
0
0
0.000240783
0.000126289
9.89266e-05
6.48303e-05
2.72286e-05
3.84267e-10
0.123537
0
0
0
0
0
2.00708e-08
-5.71139e-06
7.89974e-07
3.81827e-07
-3.07717e-06
-8.06388e-08
0
0
-4.94892e-06
0
0
0
0
0
0
0
-7.89372e-10
0
0
0
0
0
0.000980824
4.37077e-05
0.0224107
5.40537e-05
-7.87133e-06
0
0
0
0.00234177
0.107591
1.58859e-06
0.164534
2.7401e-07
-4.93836e-08
8.8121e-10
9.84192e-05
4.97221e-10
2.73294e-10
0
0.00159986
-3.0057e-09
1.67889e-10
0
3.28414e-06
0.804585
1.10431e-05
-1.61517e-09
1.29488e-09
4.02465e-05
0.0228204
0.968755
0.0166262
4.401e-10
0
0
0
0.0699822
0.0225122
3.98043e-08
1.21036e-08
0.0140759
-2.47548e-07
0
0.245707
0.233234
1.68212e-06
0.364908
1.93637e-05
0.847506
0.162859
-1.03792e-08
0
-1.44577e-08
0.657169
7.97192e-05
0
-7.37601e-10
-1.39562e-10
0.00602656
0.0572338
0.0698598
1.62448e-05
9.67104e-06
-5.01071e-07
0
0
0.108159
0.880722
0.100667
0.674226
0.0406824
6.29025e-08
0.497752
0.392772
0.398482
0.54443
0.395239
0.134365
0.205884
0.281998
6.95434e-05
3.35625e-05
7.24299e-06
8.34183e-05
1.62391e-08
0.00160072
0.938151
0.794748
0
1.24864e-05
0.947116
0.458684
0.0530469
0.0208282
1.67822e-06
6.44591e-06
0
3.8238e-05
0.650699
0.330627
-5.31283e-09
5.14862e-06
0.00479133
-7.80903e-07
3.33276e-05
0.176426
5.78686e-07
0.973797
0.0142885
-3.38004e-06
-1.63522e-10
0.804159
0.96282
4.44954e-08
0.636101
0.494336
1.19025e-05
3.47087e-05
1.83635e-05
0.853904
0.951177
0.886302
4.01463e-06
1.73198e-05
0.838756
0.699684
0.0224388
6.10928e-08
4.23674e-06
0.708989
0.934632
0.951806
8.15891e-06
0.0750639
1.99326e-05
4.81646e-05
0.000591971
3.66931e-05
5.47783e-05
0.00147949
7.66228e-05
1.31979e-06
0.190513
0.000549562
0.0513001
0.396868
0.000356815
0.93788
0.363241
9.53203e-05
0.00168038
0.334235
0.068435
0.000203954
0.0523636
0.0237383
0
3.06538e-05
0.001416
4.5711e-05
3.04957e-06
0.0916918
0.000170031
0.123596
0.951467
0.0661996
-4.58682e-07
5.49045e-06
0.0020091
0.560501
0.965787
0.0881133
2.47073e-08
0.145847
0.82903
0.000327158
4.42241e-08
0.696093
0.64455
0.744394
0.34292
0.166482
0.927921
0.939376
7.91011e-06
0.964389
0.942678
0.820745
0.253085
0.0285594
0.101719
0.00803635
0.810095
0.170963
0.688411
0.108967
-7.67729e-10
0.026894
0.721946
0.886931
-1.58883e-10
0.00792536
0.910177
1.79653e-05
0.597768
1.07306e-05
3.05616e-06
0
0.807144
0.94998
-3.30406e-06
1.70587e-05
0.531919
0
1.96201e-05
0.614708
0.818373
0.913981
0.000640547
0.00206321
-1.89764e-09
0.028714
0.00594204
1.13293e-10
0.745123
0.916273
0.846699
0.97569
0.882296
0.860619
0.330923
0.0236957
0.90732
0.920271
0.893557
0.977699
0.877064
0.974072
0.893416
0.975102
0.00541643
0.751408
0.901176
0.0605195
0.00162466
0.000205562
0.782877
0.92976
0.000810814
0.0496588
0.000118904
0.165617
0.0074003
0.800913
0.944568
0.0310126
-3.47261e-06
0.00056874
-1.92158e-06
3.30869e-05
0
5.20638e-05
0.0144448
0.00524754
0.865641
0.000148182
0.528798
0.404907
0.000486803
0.954327
0.441405
0.00133355
0.709128
0.556693
1.90551e-05
0.93688
0.966489
0.648557
0.16352
0.454008
0.0771714
2.14278e-05
0.836532
0.77481
0.822655
0.000193645
1.03313e-05
7.82497e-06
1.81999e-05
5.50185e-05
4.53179e-05
0.563485
0.184157
0.346208
0.0800603
0.974217
0.90077
0.970218
0.909897
0
0.000132051
0.947346
0.969574
0.44129
0.932447
0.948408
1.32764e-05
3.17036e-05
0.00253416
0.00566498
0.539206
0.942851
0.954927
0.0102729
0.0305253
3.08095e-06
0.663318
4.82661e-05
0.0354213
0.295802
0.919134
8.0126e-05
1.05293e-05
0.918289
0.000292995
0.0161782
0.670788
0.00655951
0.000115206
0.546134
0.000891006
0.0248355
0.0164033
0.542019
0.00472071
0.908547
0.966782
6.42326e-06
0.0154054
1.64549e-08
0.0876452
0.834941
0.00330832
5.2975e-05
0
0.667071
0.00264332
8.70141e-05
3.33217e-08
0
0.00379926
0.724849
0.000390276
0.000538553
0.0817251
1.38404e-05
0.130275
0.0984399
0.77411
0.000788091
0.921786
0.708677
0.424502
0.000831889
9.06483e-07
0.00655311
0
0.0576694
0.845762
0.535177
0.584483
8.38711e-05
0
0.0783816
0.0179218
0.0602809
7.11407e-09
0.000723998
0.0168569
0.235909
0.00101449
0.865513
0.903072
4.48025e-06
1.3016e-05
0.288089
0.901439
0.0024831
0.00204769
0.00519808
0.660118
1.1799e-05
0.096136
1.02428e-05
0.922961
0.00222971
0.00456986
0.00813561
5.40561e-05
0.117543
0.0138784
0.713335
0.0270325
0.122572
5.67537e-05
8.84532e-06
0.747684
0.000155337
0.00687473
3.42668e-07
3.36488e-07
0.150298
0.246468
1.55911e-05
0.135966
5.93712e-05
0
0.00790235
0.825065
0.657024
0.00773972
0.0207278
0.000154333
0.060679
0.000101981
0
3.9794e-06
3.40581e-07
9.16866e-05
0
0.951815
0.0347204
0.00879649
9.00096e-05
0
0.689798
2.05015e-08
2.1382e-07
1.3677e-07
0.0462664
0.0212747
8.69401e-08
6.16076e-08
4.40898e-08
0.00044967
0.212456
0.12313
0.291971
0.000753823
0.000611044
0.203579
0.131786
0.00213339
0.000432604
0.258371
0.265756
0.145069
0.00014658
0.000152342
0.716022
0.968704
5.52167e-06
0.00430185
0.32306
0.591332
0.000572833
0.32046
0.00150204
6.38e-05
0.0042052
0.0456139
0.501808
0.124281
0.00454385
0.0765226
1.39424e-08
0.271304
6.35513e-09
9.14807e-09
0.0247305
0.844256
0.975446
1.14631e-08
1.09542e-08
1.41538e-05
0.0118511
0.0193387
1.84296e-05
0.015246
0.00734218
1.61523e-06
0.00254559
0.876659
4.79284e-07
0.00031976
0.034315
0.577977
0.960572
0.813137
0.00013983
0.0699708
3.66135e-06
0.158041
6.02821e-05
4.18569e-07
0.140942
0.211965
2.35748e-07
1.61813e-07
0.126577
1.79242e-07
4.6109e-10
0.000195732
0.114521
4.70179e-05
0.00489321
0.794246
0.63232
0.934783
0.000515513
6.46353e-06
0.121701
0.0150805
2.7033e-06
3.14732e-06
3.20782e-06
2.04528e-06
0.00157839
3.66271e-05
0.659011
0.952997
1.93642e-06
0.00196288
1.50659e-05
0.575187
0.929882
9.91614e-07
0.000716633
-4.55459e-09
0.018753
0.133206
-2.74845e-10
0.0965593
0.028803
5.74851e-05
0
8.41052e-06
0.0722812
3.32245e-05
0
7.25068e-06
5.78176e-06
0.194588
0.0663893
5.27663e-06
0.161874
0.0349648
3.48296e-06
1.1897e-05
0.00122392
0.919052
0.000301485
0
0.88235
8.51241e-06
0.000213591
1.93193e-06
0.356633
0.450129
5.35007e-06
0
0.000168712
0
0.000129669
0
0.583054
0.0108769
0.00638224
2.88468e-06
0.00299989
2.82698e-06
0.0675284
0.0018005
0.000138155
2.49259e-07
0.214887
0.00057671
0.00160601
0.0375578
0.00222553
0.00561132
0.00969357
0
1.00103e-05
9.09304e-05
0.185209
0.126569
0.0072571
0.0190078
0
9.21417e-06
0.000107152
0.179023
0.0313448
0.180134
0.00915688
2.11191e-09
0.161685
0.0418383
0.302531
0.14637
0.00806436
0
3.15542e-05
0.00201359
0.048633
0.808607
0.424593
0.000473471
2.04681e-07
0.00850712
5.10792e-05
4.89471e-05
2.7508e-05
0.0262954
0.0269855
1.5541e-05
4.00699e-05
0.000105565
2.29152e-05
0.159587
0.0408766
0.00200414
0.0349383
0.00118199
8.59153e-06
0.000141755
0.000543901
0.0507612
0.000742251
0.000226432
0.0364052
0.7611
0.313674
0.000475058
2.31531e-07
0.00263964
0.000740623
0.839092
0.000359237
4.93053e-05
7.39808e-05
0.00145171
6.47768e-07
3.04328e-10
0.0489999
0.775301
0.28213
0.00106315
5.50989e-07
0.201599
0.540822
2.00897e-07
0.483624
1.66722e-06
0.0428562
0.0125145
0.945949
0.776781
0.493181
0.00187208
2.43272e-06
1.69445e-06
1.78111e-05
1.43406e-06
0.0012797
0.118231
1.15892e-06
0.439089
0.5621
1.24328e-05
1.06269e-06
9.75654e-07
0.961959
0.821948
0.555377
0.00369482
6.88532e-06
6.5855e-07
4.53097e-06
3.78639e-07
0.0723686
0.00496601
0.00209296
0.000126083
0.00469863
0.00231249
0.573075
0.264681
0.1756
1.3457e-05
0.965611
0.00275854
6.39423e-08
-5.93341e-07
0.956296
4.5023e-05
0.00327303
0.00908256
0.0109594
0.947406
0.941284
9.73188e-07
0.000136026
2.10859e-05
0
0.00761864
0.0003587
0.119118
0.572169
0.969113
1.10719e-05
0.0117928
0.000260868
0.214212
0.0109961
2.55786e-09
0.43881
0.294388
4.89555e-06
0.0105804
0.00116496
0.1093
0.605109
3.42126e-06
0.00165676
0.0757065
0.0045875
0.000950794
3.70979e-05
0.00049684
0.00302855
0.093542
0.000877876
0.000183851
0.191189
1.08629e-05
1.7342e-08
0.035745
0.425456
2.74076e-05
1.87771e-05
0.0163424
0.281236
0.00197532
0.533827
0.0156483
0.2085
0.488369
2.35873e-05
0
0.00011252
-3.94499e-06
0.0106353
8.02454e-05
0.332138
5.29942e-05
0.330787
0.0617609
0.00321379
0.0148166
0.638192
0.092838
0.0119629
0.600129
0.216465
0.00372236
0.000601215
0.307155
0.000685479
0.0519068
0.0037915
0.147005
0.00132318
0.00102762
0.292419
0.123454
5.80478e-08
0.00701269
0.0219412
0.672063
0.0720067
7.8191e-06
0.000158094
0.00373208
1.81371e-05
0
0.0111682
-9.48104e-10
0
3.00155e-05
0
0.603073
0.255106
8.31615e-06
1.4052e-05
0.612278
0.935033
0.000536708
0.358287
0.495225
0.636463
0.00471693
0.00886383
0.000228641
0.375879
1.84106e-06
2.16187e-05
0.000782466
0.730909
0.554241
0.00328275
0.956478
0.491202
0.238357
0.557995
1.2068e-05
1.5687e-05
0
0.868807
0.813157
0.200726
0.27146
1.05375e-06
0.322556
0.0602974
0.00447464
0.110756
0.00283081
0.418545
7.97837e-06
0.0330371
0.00275038
2.20861e-08
0.000114428
0.000111741
0.564724
1.15439e-05
2.46115e-08
0.0467408
0.0141793
2.17938e-09
0.197298
0.893244
0.208578
0.21211
0.320725
8.91117e-07
8.18352e-05
0.00647509
0
1.07354e-05
0.967737
0.00967499
0.615825
1.35397e-05
3.64493e-08
0.478959
0.654339
0.380084
0.000780874
1.22411e-06
0.343231
0.337799
0.000231402
0.00148429
0.000465816
0.0048159
3.23624e-05
0.000559345
0.542019
5.42932e-06
1.29172e-08
0.0290532
1.44468e-09
0.00263906
3.33428e-05
2.04597e-05
2.0211e-06
0.116921
0.0246282
0.976066
0.741842
0.00798619
1.64307e-05
0.17896
0.153587
0.0919696
0.00047272
0
2.53048e-05
0.516883
0.108773
0.231513
0.0158055
0.0984573
0.00721239
0.00232519
4.09262e-06
2.2128e-05
0.00956661
0.00106588
0.501588
0.172477
4.15102e-08
4.45835e-06
3.26602e-05
0.00220138
0.0370741
1.14792e-05
0.147703
9.77488e-08
0.00151625
0.00590874
0.00345222
0.000408261
0.0256478
0.0452836
1.26329e-05
0.010058
3.20048e-07
0.0820397
0.0427806
0.000346546
4.65935e-07
0.302428
0.151321
0.00103222
0.0554606
-5.28132e-06
3.83792e-07
0.0665405
0.0339157
3.80931e-07
0.024479
0.00085791
5.75974e-08
2.00899e-05
0
0
0.0885062
6.15172e-07
0.14223
0.0859186
0.000162576
6.11478e-06
0.00556594
1.01743e-05
0.295993
0.65877
2.3389e-06
-2.73224e-05
8.35126e-07
0.0935967
4.59293e-05
1.48151e-07
9.77367e-06
0.00158269
3.16905e-06
0.447355
0.0229884
0.328358
3.1747e-06
1.46438e-05
0.242159
2.48597e-05
0
6.59134e-06
6.0294e-05
0.000910222
5.8597e-05
0.353851
0.12859
5.8358e-06
-9.44126e-09
2.28951e-05
0.507931
1.05727e-07
0.608714
0.000486904
0.0262016
0.0013618
0.00737409
0.0850756
0.390095
0.00214395
0.433146
0.00787265
0.000292565
0.00308242
0.0138392
4.68605e-05
0.888
0.000307257
0.00222404
0.000808171
0.24705
0.0033331
0.000872399
2.54383e-06
1.26357e-07
0.0339948
2.21556e-05
0
1.2385e-05
1.09909e-07
1.57805e-06
0.00833428
7.6544e-05
4.21723e-05
6.99458e-06
0.418896
3.35153e-05
0.225515
9.18966e-05
0
0.00317373
0.000874623
0.592883
0.389502
0.936334
0.402669
0.550565
0.582151
0.143078
2.03682e-05
0
3.40535e-07
2.48884e-06
1.76701e-05
0.000575325
0.0124605
5.71445e-05
0.000152438
0.159087
0.075797
6.77802e-06
0.000134871
0.00059901
9.48308e-05
0.16938
1.59547e-06
0.110633
3.48699e-06
1.05497e-07
1.96357e-06
0.720857
3.49333e-05
0.0721868
0.00677813
0.677942
0.731235
3.85243e-05
1.39643e-08
0.897874
0.838527
0.272884
0.329951
2.102e-06
0.374171
0.690498
8.91822e-05
1.63985e-05
0
0.000211743
0.189605
0.44604
0.000375902
4.08838e-05
0.144823
0.032867
4.09331e-09
0.0137632
0.170728
0.101049
0.000305433
0.00114508
1.27648e-05
8.90098e-06
1.77818e-07
7.49249e-05
2.6005e-05
1.1401e-06
0.735996
0.000125868
0.00767991
0.0149655
6.5887e-05
0.438015
0.533362
0.0707994
0.00221862
0.0225118
0.183794
0.0565608
0.0232218
0.000254056
0.0502176
0.204154
0.000308239
0.239014
0.0928659
0.00298913
4.36663e-06
0.365637
0.384636
1.61895e-06
0.00394428
0.00418133
1.34065e-09
0.741232
0.143709
1.57627e-05
4.20847e-08
0.000216932
0.285728
0.170496
0.813797
9.71831e-06
0.158666
0.000149479
0.2316
0.000194865
8.13964e-06
0.00019308
2.22278e-06
3.52548e-05
0.326681
0.000237422
0.000776846
0.0618194
1.07862e-05
8.74204e-05
1.81747e-05
0
0.0202072
4.58319e-05
0.0173165
0.0140839
0.557409
7.73654e-08
0
0.130479
0.478531
0.603949
0.363275
2.5589e-05
0
0.715612
2.97395e-05
0.0611002
0.000469587
6.00828e-05
1.00971e-05
0.144384
0.0278577
-2.73082e-09
3.49776e-05
0.306552
3.58391e-05
0.163164
0.96401
0.872282
6.84339e-07
0.438198
9.45017e-10
0.0320399
0.724166
0.184677
0.398313
0.000142299
0.952842
3.63977e-05
0.0178816
0.431384
0.000529474
0.171545
0.128226
0.826342
8.52308e-05
2.49263e-06
0.6995
2.23237e-05
0.0765321
0.00165156
0.107523
0.216378
0.496137
0.0829249
0.000256777
0.000960795
1.32712e-06
4.85299e-06
0.000340166
1.37993e-07
0.02511
0.00589436
1.51589e-05
0.251256
0.0458794
4.9748e-08
9.23287e-07
4.812e-06
0.140434
0.000677972
5.35349e-06
0.00432263
0.610014
0.37078
0.000559432
0.0200593
0.621517
3.35369e-05
0
5.96672e-05
0.011495
0.256964
0.485274
3.56184e-05
6.9894e-06
0
0.0129905
6.7329e-05
0.532994
0.0185282
0.13491
0.00596555
0.0299131
0.000155351
1.03594e-05
3.14419e-05
0.0119732
0.0038108
0.0141174
0.000702068
0.583746
0.459925
1.90452e-08
0.000149325
0.0931008
6.25745e-07
3.48682e-08
3.51604e-05
0.848517
0.0135338
0.0660734
3.41652e-06
0.471886
6.90571e-08
3.29614e-05
0.000480009
0.385633
0.101752
0.000324895
0.347818
0.127906
4.53974e-05
0.0956415
0.00998559
1.08186e-07
0.112458
0.000176278
0.0544539
-2.20415e-10
4.32892e-05
3.11492e-08
6.43532e-07
0.242474
0.063236
1.31436e-06
8.70057e-08
0.054114
0.10202
0.380944
0.313754
0.0111995
5.33476e-05
0.659666
0.889042
9.31149e-05
0.681929
0.00688442
0.206912
0
0.0616443
0.785946
0.231565
3.33975e-05
1.41197e-05
0
5.80934e-07
0.0768899
0.0235088
0.00758617
0.00053836
0.00221869
0.175126
0.102465
0.00152939
0.00530856
0.000100901
0.121249
0.535881
0.834806
6.84493e-06
0.388275
0.282204
0.00905605
0.00733994
2.51895e-09
0.002182
0.00387281
0.226694
0.282769
0.215328
0.918792
0.122085
0.0198736
4.93042e-09
0.384869
0.289888
1.39779e-09
0.00124903
0.00649935
0.719489
0.000123962
0
3.48784e-05
0
-3.21546e-07
3.55231e-09
5.33817e-09
-5.2205e-06
4.56591e-08
1.68752e-09
7.67625e-09
0.0228692
0.21664
0.478958
0.149113
0.322692
7.30664e-09
0.00669042
0.628632
0.35416
0.240373
3.50312e-05
0.976041
4.19776e-09
0.0154727
0.00175383
0.422762
0.00632054
0.625359
0.312424
2.32707e-05
2.9888e-05
0.639198
1.19875e-05
0.299126
0.132799
0.00699228
8.72565e-06
0.000145853
0.00413099
0.0115496
0.358203
7.29933e-05
2.86678e-06
0.0306619
0.00407693
2.75563e-06
0.0414047
0.0055313
0.449516
0.200838
0.0833669
0.238987
0.227492
0.243515
0.0137265
0.0420543
0.60364
0.00144118
0.152153
0.00294724
0.913763
0.0656977
0.00136674
0.000273316
0.269771
0.0337143
0.000870643
0.000102724
0.240538
2.74905e-05
5.94669e-08
0.070273
0.00568463
0.0143194
0.000231433
1.64272e-05
0.119573
0.000154709
0.701636
0.58967
0.0935387
2.39476e-05
0.233608
0.0667558
0.000306291
0.148201
0.0292297
0.196606
0.000942736
0.133502
0.00624242