# vtk DataFile Version 2.0
Unstructured Grid by M++
ASCII
DATASET UNSTRUCTURED_GRID
POINTS 15808 float
  0.804688   0.710938 0
  0.804688   0.742188 0
  0.882812   0.984375 0
  0.812500   0.937500 0
  0.796875   0.984375 0
  0.875000   0.726562 0
  0.804688   0.656250 0
  0.945312   0.625000 0
  0.867188   0.828125 0
  0.773438   0.984375 0
  0.953125   0.546875 0
  0.781250   0.984375 0
  0.781250   0.976562 0
  0.976562   0.882812 0
  0.906250   0.945312 0
  0.953125   0.632812 0
  0.828125   0.734375 0
  0.937500   0.562500 0
  0.757812   1.000000 0
  1.000000   0.539062 0
  0.820312   0.976562 0
  0.953125   0.773438 0
  0.773438   0.937500 0
  0.828125   0.929688 0
  0.789062   0.937500 0
  0.835938   0.937500 0
  0.898438   0.750000 0
  0.921875   0.773438 0
  0.984375   0.523438 0
  0.804688   0.960938 0
  0.859375   0.960938 0
  0.765625   0.617188 0
  0.820312   0.945312 0
  0.804688   0.992188 0
  0.914062   0.921875 0
  0.835938   0.546875 0
  0.929688   0.945312 0
  0.953125   0.992188 0
  0.828125   0.507812 0
  0.859375   0.625000 0
  0.796875   0.734375 0
  0.789062   0.726562 0
  0.789062   0.781250 0
  0.953125   0.929688 0
  0.851562   0.531250 0
  0.757812   0.750000 0
  0.867188   0.578125 0
  0.812500   0.976562 0
  0.929688   1.000000 0
  0.773438   0.710938 0
  0.953125   0.804688 0
  0.867188   0.546875 0
  0.898438   1.000000 0
  0.906250   0.992188 0
  0.937500   0.953125 0
  0.929688   0.953125 0
  0.773438   0.796875 0
  0.937500   0.945312 0
  0.929688   0.937500 0
  0.765625   0.789062 0
  0.757812   0.945312 0
  0.968750   0.648438 0
  0.773438   0.851562 0
  0.937500   1.000000 0
  0.851562   0.703125 0
  0.789062   0.945312 0
  0.968750   0.507812 0
  0.804688   0.984375 0
  0.765625   0.953125 0
  0.859375   0.539062 0
  0.914062   0.593750 0
  0.851562   0.835938 0
  0.789062   0.812500 0
  0.953125   0.960938 0
  0.851562   0.562500 0
  0.781250   0.804688 0
  0.945312   0.953125 0
  0.765625   1.000000 0
  0.757812   0.992188 0
  0.765625   0.992188 0
  0.812500   0.750000 0
  1.000000   0.929688 0
  0.835938   0.687500 0
  0.812500   1.000000 0
  0.914062   0.960938 0
  0.921875   0.960938 0
  0.921875   0.953125 0
  0.781250   0.859375 0
  1.000000   0.765625 0
  0.890625   0.742188 0
  0.992188   0.812500 0
  0.898438   0.953125 0
  0.796875   0.953125 0
  0.976562   0.515625 0
  0.906250   1.000000 0
  0.914062   1.000000 0
  0.914062   0.992188 0
  0.984375   0.804688 0
  0.984375   0.664062 0
  0.812500   0.523438 0
  0.859375   0.929688 0
  0.867188   0.921875 0
  0.898438   0.664062 0
  0.867188   1.000000 0
  0.875000   1.000000 0
  0.867188   0.992188 0
  0.875000   0.992188 0
  1.000000   0.953125 0
  0.835938   0.804688 0
  0.937500   0.789062 0
  0.906250   0.671875 0
  0.914062   0.679688 0
  0.945312   0.937500 0
  0.851562   0.921875 0
  0.945312   0.539062 0
  0.765625   0.976562 0
  0.937500   0.531250 0
  0.757812   0.968750 0
  0.828125   0.679688 0
  0.820312   0.968750 0
  0.812500   0.968750 0
  0.992188   0.531250 0
  0.921875   0.976562 0
  0.773438   0.976562 0
  0.773438   0.625000 0
  0.843750   0.945312 0
  0.929688   0.781250 0
  0.914062   0.984375 0
  0.828125   0.953125 0
  0.890625   0.710938 0
  0.835938   0.968750 0
  0.835938   0.960938 0
  0.828125   0.968750 0
  0.898438   0.718750 0
  0.929688   0.976562 0
  0.875000   0.976562 0
  0.757812   0.937500 0
  0.929688   0.500000 0
  0.929688   0.960938 0
  0.773438   0.765625 0
  0.835938   0.515625 0
  0.968750   0.984375 0
  0.960938   0.781250 0
  0.906250   0.960938 0
  0.906250   0.953125 0
  0.898438   0.968750 0
  0.898438   0.960938 0
  0.968750   0.703125 0
  0.796875   0.562500 0
  0.851562   0.976562 0
  0.851562   0.968750 0
  0.781250   0.687500 0
  0.890625   0.992188 0
  0.796875   0.593750 0
  0.890625   0.796875 0
  0.789062   0.976562 0
  0.968750   0.476562 0
  0.960938   0.468750 0
  0.890625   0.968750 0
  0.890625   0.960938 0
  0.953125   0.718750 0
  0.898438   0.804688 0
  1.000000   0.820312 0
  0.968750   0.562500 0
  0.789062   1.000000 0
  0.960938   0.554688 0
  0.781250   0.992188 0
  0.867188   0.937500 0
  0.929688   0.695312 0
  0.914062   0.765625 0
  0.906250   0.726562 0
  0.859375   0.921875 0
  0.867188   0.914062 0
  0.843750   0.960938 0
  0.851562   0.953125 0
  0.843750   0.953125 0
  0.921875   0.742188 0
  0.882812   0.484375 0
  0.914062   0.734375 0
  0.882812   0.476562 0
  0.960938   0.992188 0
  0.960938   0.984375 0
  0.859375   0.984375 0
  0.867188   0.968750 0
  0.937500   0.757812 0
  0.898438   0.500000 0
  0.929688   0.750000 0
  0.890625   0.492188 0
  0.898438   0.492188 0
  0.890625   0.484375 0
  0.875000   0.945312 0
  0.828125   0.539062 0
  1.000000   0.679688 0
  0.960938   0.695312 0
  0.992188   0.953125 0
  0.953125   0.687500 0
  0.898438   0.937500 0
  0.414062   0.523438 0
  0.406250   0.515625 0
  0.468750   0.523438 0
  0.398438   0.679688 0
  0.429688   0.562500 0
  0.257812   0.906250 0
  0.859375   0.835938 0
  0.250000   0.898438 0
  0.851562   0.828125 0
  0.906250   0.781250 0
  0.281250   0.867188 0
  0.882812   0.757812 0
  0.257812   0.843750 0
  0.492188   0.687500 0
  0.906250   0.750000 0
  0.281250   0.835938 0
  0.390625   0.843750 0
  0.398438   0.851562 0
  0.906250   0.703125 0
  0.281250   0.789062 0
  0.593750   0.132812 0
  0.898438   0.695312 0
  0.273438   0.781250 0
  0.585938   0.125000 0
  0.445312   0.726562 0
  0.406250   0.523438 0
  0.445312   0.781250 0
  0.398438   0.523438 0
  1.000000   0.453125 0
  0.437500   0.781250 0
  0.468750   0.726562 0
  0.960938   0.640625 0
  0.882812   0.679688 0
  0.257812   0.765625 0
  0.570312   0.109375 0
  0.890625   0.687500 0
  0.265625   0.773438 0
  0.578125   0.117188 0
  0.382812   0.664062 0
  0.390625   0.671875 0
  0.921875   0.718750 0
  0.296875   0.804688 0
  0.609375   0.148438 0
  0.429688   0.500000 0
  0.421875   0.500000 0
  0.367188   0.757812 0
  0.406250   0.859375 0
  0.429688   0.656250 0
  0.492188   0.546875 0
  0.484375   0.539062 0
  0.484375   0.546875 0
  0.882812   0.687500 0
  0.257812   0.773438 0
  0.500000   0.851562 0
  0.453125   0.734375 0
  0.492188   0.539062 0
  0.421875   0.593750 0
  0.429688   0.601562 0
  0.437500   0.609375 0
  0.906250   0.789062 0
  0.281250   0.875000 0
  0.414062   0.570312 0
  0.460938   0.828125 0
  0.421875   0.570312 0
  0.429688   0.570312 0
  0.437500   0.578125 0
  0.257812   0.789062 0
  0.890625   0.718750 0
  0.265625   0.804688 0
  0.265625   0.796875 0
  0.882812   0.718750 0
  0.257812   0.804688 0
  1.000000   0.515625 0
  0.375000   0.601562 0
  0.382812   0.609375 0
  0.406250   0.570312 0
  0.398438   0.570312 0
  0.406250   0.578125 0
  0.390625   0.812500 0
  0.460938   0.632812 0
  0.453125   0.625000 0
  0.390625   0.875000 0
  0.953125   0.460938 0
  0.257812   0.796875 0
  0.882812   0.710938 0
  0.265625   0.906250 0
  0.867188   0.835938 0
  0.953125   0.492188 0
  0.960938   0.500000 0
  0.281250   0.953125 0
  0.460938   0.515625 0
  0.273438   0.945312 0
  0.453125   0.507812 0
  0.265625   0.937500 0
  0.398438   0.625000 0
  1.000000   0.640625 0
  0.375000   0.726562 0
  0.976562   0.656250 0
  1.000000   0.648438 0
  0.375000   0.734375 0
  0.476562   0.531250 0
  0.453125   0.789062 0
  0.414062   0.531250 0
  0.914062   0.453125 0
  0.421875   0.531250 0
  0.437500   0.562500 0
  0.437500   0.554688 0
  1.000000   0.710938 0
  0.375000   0.796875 0
  0.429688   0.554688 0
  0.468750   0.804688 0
  0.429688   0.546875 0
  0.929688   0.468750 0
  0.859375   0.453125 0
  0.867188   0.632812 0
  0.437500   0.859375 0
  0.875000   0.640625 0
  0.906250   0.679688 0
  0.281250   0.765625 0
  0.414062   0.750000 0
  0.726562   0.093750 0
  0.406250   0.750000 0
  0.406250   0.664062 0
  0.890625   0.679688 0
  0.265625   0.765625 0
  0.500000   0.671875 0
  0.898438   0.687500 0
  0.273438   0.773438 0
  0.484375   0.515625 0
  0.421875   0.679688 0
  0.882812   0.703125 0
  0.945312   0.453125 0
  0.476562   0.507812 0
  0.414062   0.671875 0
  0.281250   0.843750 0
  0.421875   0.562500 0
  0.960938   0.484375 0
  0.335938   0.570312 0
  1.000000   0.742188 0
  0.375000   0.828125 0
  0.476562   0.875000 0
  0.468750   0.867188 0
  0.484375   0.859375 0
  0.484375   0.867188 0
  0.460938   0.796875 0
  0.421875   0.539062 0
  0.921875   0.460938 0
  0.453125   0.796875 0
  0.414062   0.539062 0
  0.500000   0.562500 0
  0.500000   0.507812 0
  0.414062   0.867188 0
  0.437500   0.687500 0
  0.859375   0.679688 0
  0.257812   0.875000 0
  0.859375   0.804688 0
  0.453125   0.820312 0
  0.414062   0.562500 0
  0.460938   0.687500 0
  0.398438   0.820312 0
  0.882812   0.468750 0
  0.257812   0.554688 0
  0.859375   0.484375 0
  0.484375   0.656250 0
  0.437500   0.531250 0
  0.445312   0.671875 0
  0.437500   0.804688 0
  0.398438   0.546875 0
  0.445312   0.812500 0
  0.406250   0.554688 0
  0.281250   0.898438 0
  0.382812   0.835938 0
  0.414062   0.835938 0
  0.867188   0.460938 0
  0.890625   0.789062 0
  0.265625   0.875000 0
  0.867188   0.804688 0
  0.265625   0.882812 0
  0.867188   0.812500 0
  0.492188   0.718750 0
  0.468750   0.640625 0
  0.406250   0.828125 0
  0.492188   0.515625 0
  0.500000   0.859375 0
  0.437500   0.718750 0
  0.437500   0.570312 0
  0.484375   0.679688 0
  0.445312   0.507812 0
  0.390625   0.562500 0
  0.445312   0.789062 0
  0.406250   0.531250 0
  0.476562   0.570312 0
  0.437500   0.507812 0
  0.929688   0.726562 0
  0.304688   0.812500 0
  0.617188   0.156250 0
  0.273438   0.890625 0
  0.265625   0.828125 0
  0.437500   0.539062 0
  0.445312   0.867188 0
  0.273438   0.835938 0
  0.468750   0.718750 0
  0.437500   0.664062 0
  0.453125   0.679688 0
  0.382812   0.718750 0
  0.695312   0.062500 0
  0.468750   0.562500 0
  0.882812   0.648438 0
  0.406250   0.546875 0
  0.484375   0.570312 0
  0.484375   0.625000 0
  0.398438   0.539062 0
  0.898438   0.781250 0
  0.273438   0.867188 0
  0.406250   0.562500 0
[...]
POINT_DATA 15808
SCALARS scalar_value float 1
LOOKUP_TABLE default
5.15069e-08
7.29924e-09
0
-2.81897e-10
0
-1.88694e-09
6.60446e-07
1.04692e-08
-2.56625e-10
0
-1.29443e-06
0
0
0
0
-1.32188e-08
3.84492e-09
-1.50703e-06
0
2.88538e-07
0
0
-2.29499e-10
0
-1.58093e-10
0
-3.04127e-09
-2.99605e-10
3.91562e-08
0
0
2.78663e-05
0
0
0
1.44186e-05
0
0
2.94224e-05
-1.1322e-07
2.3637e-08
8.31912e-08
5.27865e-09
0
1.82123e-05
4.08857e-09
1.59795e-06
0
0
1.4009e-07
0
3.42039e-06
0
0
0
0
2.94505e-09
0
0
7.36545e-09
0
-1.56673e-08
-1.7374e-09
0
1.15939e-08
0
-1.16648e-06
0
0
5.6688e-06
-4.98828e-08
-4.81821e-10
-1.90451e-09
0
3.54533e-06
1.23893e-08
0
0
0
0
1.5466e-09
0
6.03552e-08
0
0
0
0
5.1635e-09
0
-1.87503e-09
0
0
0
-3.94565e-07
0
0
0
0
-2.29454e-09
2.09395e-05
0
0
-3.65914e-08
0
0
0
0
0
-5.61954e-10
0
-1.39185e-08
3.10249e-09
0
0
-1.89078e-06
0
-2.47773e-06
0
1.03076e-07
0
0
1.57756e-07
0
0
1.56324e-05
0
-1.6075e-10
0
0
6.02186e-09
0
0
0
4.60388e-09
0
0
-2.56558e-10
5.98072e-06
0
-1.86742e-09
3.17332e-05
0
0
0
0
0
0
-1.00307e-09
-7.45303e-06
0
0
3.57478e-07
0
8.54251e-06
-4.7375e-10
0
-1.20024e-06
-2.27599e-06
0
0
-1.22372e-09
0
0
-3.73169e-07
0
-6.97541e-07
0
0
-1.13483e-08
-5.86116e-10
-4.42448e-09
0
0
0
0
0
-1.08946e-09
4.83287e-05
-2.86796e-09
5.18684e-05
0
0
0
0
-2.71998e-10
3.63151e-05
-5.12422e-10
4.16947e-05
4.14121e-05
4.69848e-05
0
2.03095e-05
-5.38379e-10
-2.06597e-09
0
-4.73428e-09
0
0.35741
0.374266
0.00111543
0.00128975
0.00194684
7.36204e-09
-2.92618e-10
8.33629e-09
-6.63872e-10
-3.75546e-10
5.18932e-08
-1.87206e-09
-2.73295e-09
-0.000729934
-2.1233e-09
-7.12541e-09
5.0108e-07
-4.01e-06
8.48777e-09
6.21427e-08
7.95854
2.47212e-09
5.90666e-08
7.0277
-1.08367e-05
0.280081
-3.45944e-05
0.14001
-2.36451e-08
7.64557e-05
-4.94095e-06
-3.08464e-08
-4.4687e-08
9.58847e-09
7.56576
-1.14639e-08
2.13695e-08
7.85034
1.50565e-05
5.40022e-05
-2.66742e-09
2.707e-07
7.03663
1.65927
1.7167
-1.24162e-05
-5.14774e-06
-5.87134e-05
0.00111614
0.00157333
0.000745765
1.50603e-10
9.76396e-09
-6.8221e-06
-8.75952e-05
0.00127294
0.017903
-0.00323691
-0.00392049
-2.50375e-10
2.87582e-08
0.131725
-1.99707e-05
0.0455437
-0.00109032
-0.00442574
2.06182e-08
3.70402e-09
2.31594e-08
3.70062e-08
-1.16598e-09
1.88302e-08
-1.49543e-07
1.69653e-05
-2.72168e-05
0.0776564
0.00835722
0.0651945
0.000490343
-0.00228387
-0.00287566
-6.136e-07
-3.81495e-06
2.39653e-08
-1.27277e-09
5.74086e-09
-1.9048e-10
-4.22966e-08
-1.3497e-06
1.83495e-09
0.000969514
1.01051e-09
0.00338172
1.30503e-09
0.0025675
-3.9894e-09
0.000135709
-4.96083e-09
-2.75104e-09
6.07516e-05
0.00171282
-3.15256e-05
0.29452
-6.07914e-06
0.211979
-0.00387134
-0.00404706
-3.17022e-10
0.000329722
0.00782834
-7.20146e-05
0.0163414
-6.93416e-06
5.92175e-05
-2.74214e-08
-3.01306e-06
-7.97326e-09
-1.32083e-08
5.12764e-08
0.00298166
2.43074
0.0064103
0.0255765
-4.19789e-08
1.63626e-08
-0.000723771
-1.54946e-08
4.29645e-08
0.00227201
0.00059325
6.27516e-09
-4.55183e-06
0.00257547
0.00987908
-4.21024e-08
0.0619374
-1.38908e-06
0.000188334
0
6.58286e-07
9.42761e-06
7.36463e-06
1.51285e-06
2.19936e-06
-4.31217e-05
0.153917
-7.92215e-06
9.41734e-07
0.245095
0.000991328
0.00343806
-6.7968e-06
5.21948e-05
1.39634e-07
6.69372e-09
-7.46244e-10
-1.70034e-05
0.151227
-0.000367777
-8.63398e-05
4.83357e-05
9.8837e-05
2.93113e-05
-0.000891973
-0.000424068
-0.000259873
8.8367e-05
0.02932
-8.14134e-06
0.109443
4.17193e-09
1.38712e-06
-1.23499e-05
5.55241e-05
-6.66659e-10
1.55482e-08
-6.8618e-10
1.39527e-08
-5.18067e-10
-0.000224256
-0.00178992
-2.55647e-05
0.00290239
-9.56892e-06
-2.91815e-05
-0.00390085
-0.000951453
0.0806656
-0.00215796
-2.75033e-05
0.211791
0.000382081
0.351352
-6.27761e-10
1.30464e-07
6.53564
1.35887e-09
2.37287e-08
-0.00340284
-2.80879e-06
1.12297e-08
-4.70772e-05
-0.000121821
-0.000325864
7.06261e-05
7.54501
-0.00505144
-4.97786e-09
0.135595
0.00740419
-0.00154587
0.0427345
-6.14633e-10
2.44038e-08
0.0921999
-1.477e-09
-1.55929e-09
0.0202198
0.00140178
-2.80608e-07
0.00478787
-0.00129375
-3.40918e-06
0.00815275
-0.00173828
0.00231339
-1.29165e-08
0.0157805
0.0441944
0.170868
0.00392414
2.50356e-10
-0.00866986
-2.33257e-09
-6.61449e-09
-0.00280574
0.0182473
0.000270133
0
-0.00962822
0
-0.00270378
0.0677522
0.207227
-1.36268e-05
0.111895
0.00500656
0.0825587
4.00145e-09
-8.37356e-10
8.36005e-09
-1.77223e-10
1.45644e-09
0.176885
6.47521e-06
-0.00135584
-5.93489e-06
0.112137
-2.01861e-08
-1.27276e-09
0.000458903
-0.00117411
-7.13954e-06
-3.66496e-06
-1.69725e-06
-1.52202e-05
0.00956815
0.00457909
-3.21803e-09
7.69018e-09
0.0779557
-0.0018439
-5.90247e-08
-0.00214232
-0.00599143
0.00210832
-1.01851e-09
-9.73548e-10
0.000837147
-3.74035e-05
0.000175218
-5.76705e-05
-0.000110957
-2.96821e-06
-7.40175e-10
0.00478979
-2.75371e-10
8.88159e-09
-4.88052e-10
0.0251353
-0.000319043
0.000275549
0.000308796
0.000591644
0.000734218
-1.14333e-09
0.00059054
0.00165034
0.00122337
-2.08214e-09
-4.2882e-09
-2.86087e-09
-1.5532e-09
1.37203e-10
0.000923662
0
-2.93038e-07
-1.67707e-09
-5.5739e-10
2.7791e-08
-9.60532e-10
-2.37788e-05
4.2392e-05
0.00265781
0.000642547
-7.627e-10
-7.1295e-07
0.00412081
0.00350508
7.93515e-07
-2.03573e-06
0.0149261
4.44044
0.00129152
6.00165
-4.78573e-06
0.0670616
0.294212
0.132213
1.96571e-05
5.10973e-08
-3.98569e-05
-5.76684e-09
0.00012744
-0.00236879
0.000180438
-9.1265e-07
-9.73743e-06
-0.00148532
-7.85719e-07
-0.000764662
-6.39901e-06
8.11041e-09
0.00268187
0.00350101
0.00275891
0.00167501
-2.21742e-10
9.85552e-07
0.00279917
0.000363632
6.99488
0.000898893
0.00231175
-4.05933e-06
0.00011481
0
1.135e-07
0.000715829
-0.00356227
6.48598e-05
0.000752972
0.0123363
0.000866844
2.09036e-08
3.03896e-05
2.04695e-05
0.000172565
-1.13265e-05
-3.41253e-05
-9.57475e-06
-7.77537e-06
-0.00425324
0.0172863
0.0217699
-1.01196e-05
-6.48419e-06
0
7.02853e-08
7.91527e-05
-1.03871e-10
7.38342e-08
0.00189363
0.00215484
0.00198958
0.00200238
0.00199739
1.4311e-05
0.00020665
0.0157981
-0.000346712
-0.00108697
0.0164846
0.00103187
9.49011e-06
5.27735e-05
-1.7903e-05
3.0909e-05
0.00019153
0.000130525
5.27716e-05
-5.44233e-09
6.50077e-05
1.91322e-05
-2.27266e-07
-0.00351648
2.22151e-08
-0.00838045
-0.00835552
-0.00790315
0.00827645
0.0174039
0.0335058
0.000830233
0
2.22319e-07
0.00275917
0.000781553
2.77275e-06
-1.97345e-05
3.12219e-05
-1.21623e-10
-3.12009e-07
0.0385576
0.0274143
-7.00517e-06
1.43795e-06
-0.00131215
-0.004643
-1.68208e-06
6.19873e-06
-3.59003e-06
6.18949e-05
-0.00847847
-0.00712524
-8.21418e-05
8.02195e-05
0.000165866
2.47884e-06
-3.42775e-05
-6.87487e-06
1.36839e-05
2.77648e-08
2.31411e-08
1.94341e-05
-1.40802e-05
-3.43413e-09
2.54155
4.88193
-1.05041e-10
0
6.99628e-10
5.64207e-10
3.72822e-05
-1.85012e-08
-0.000155006
0.000486272
6.20607e-06
0.000104391
-3.48046e-08
-2.68105e-08
-5.87624e-08
5.52349e-07
1.99152e-07
-2.92792e-07
3.23802
-1.46742e-09
2.16871e-10
0
0
7.08317e-08
0
1.82784e-07
2.4073e-08
1.01426e-10
3.55497
1.3912e-08
2.2858e-05
0
-1.14417e-09
0
-2.42935e-09
0
1.84702e-07
0.0214657
-5.52069e-07
0
0.00149324
1.9546e-10
3.25617e-08
1.00778e-10
-2.07693e-09
-6.36449e-06
0
-4.22031e-08
-1.27711e-07
2.32651e-06
4.96723e-10
-9.93307e-08
-2.69183e-09
-3.97399e-09
0
-7.96159e-09
1.16602e-09
0
4.01497e-06
-2.05448e-06
1.6981e-07
-0.000567566
0
0
8.86891e-07
1.1194e-06
3.08369e-06
4.48745e-06
1.63533e-06
8.93254e-09
0
5.09258e-09
1.4002e-06
6.32904e-07
5.23095e-09
2.22712e-06
7.84445e-07
4.28255e-07
0
0
5.72784e-08
0
0.00384523
0.00233921
0
-7.61002e-10
0
4.96623
0.00176387
0
-1.71599e-09
0
5.00997
4.8306
0.00143552
0
0
0
1.77751e-07
3.42328e-07
2.17202
2.28643
-6.9743e-06
3.06769e-08
0
-6.7421e-06
0
-0.000150934
-4.54138e-05
-3.20218e-05
-0.00014632
0
7.83143e-09
-1.56305e-09
0
0
-0.000393867
0
0.00222983
0.00212941
1.30226e-08
1.3553e-08
-0.000395397
1.12748e-05
1.05919e-06
-8.61735e-07
2.38553e-05
0.0046901
0
0
0
4.11009e-05
1.45431e-08
0.00135474
1.48047e-10
0
1.45573e-06
0
0
1.94587e-06
0
0
7.84699e-06
0
0
-8.61012e-05
-3.88014e-07
1.05373e-08
1.29948e-09
9.42372e-10
7.80787e-10
0
3.06008e-09
3.17239e-08
-1.06986e-05
-3.45675e-06
-6.12262e-06
6.40569e-08
1.19044e-10
0.000446969
-1.1675e-07
0
4.83864
-1.33819e-05
-2.47889e-05
-0.000105398
0.00338242
8.47698e-08
6.88908e-09
0.00603206
1.44992e-09
1.17521e-08
-6.34046e-06
-3.91795e-06
1.59841e-05
4.04286
4.26125e-09
-3.91626e-09
0
0
-9.5433e-08
1.60078e-06
2.50106e-07
-1.19087e-06
1.98397e-05
2.96844
0.000194389
1.10426e-05
-2.08114e-09
1.36367e-10
1.78621e-05
2.73377
-0.000341262
0.000189831
1.6326e-05
6.45014e-05
9.11167e-06
4.16758e-05
3.05516e-05
0.0147328
5.36158e-09
1.98394e-07
7.36467e-09
7.87661e-08
4.77193e-10
4.11985e-10
0
0
2.70114e-07
4.58384e-10
2.31908e-07
0
3.10694e-07
-2.22144e-06
0
-1.4587e-05
-0.000109832
0.00643472
-0.000224606
3.49325e-10
0.00114626
3.63215e-09
3.56745e-10
0.000710223
-1.92683e-10
5.42544e-10
1.32894e-05
5.02106e-06
2.54202e-07
1.05521e-05
0.85289
7.25507e-06
1.30714e-07
7.82793e-06
0.852454
0.000250313
5.91886e-07
0
0.651808
7.65503e-07
-1.50825e-06
3.64514e-05
1.1989e-08
0
1.91234e-06
6.49155e-07
-3.1477e-06
1.56144e-09
1.51126e-10
-5.42877e-09
0.000357809
1.37851e-08
-3.62737e-09
0.00029283
-2.58655e-09
1.23145e-09
0.00023068
-6.80239e-10
3.70917e-09
4.56118
0
0
3.31954e-07
2.307e-07
0
7.99109e-10
0
4.80926e-06
0.893809
-2.36774e-07
0
3.81071e-05
0
3.889e-07
0
2.20066e-07
-2.03309e-09
1.75774e-09
1.87146e-07
5.62972e-09
1.19303e-08
0.0152996
0
0
-5.66937e-05
0
-1.41509e-06
-4.1715e-07
0
0
0.0570714
4.29046e-10
4.34837e-10
0
0
0
0
0
-4.09988e-07
1.31448e-07
0
0
2.36544e-07
0
5.29252e-08
1.92062e-08
6.04201e-10
-4.54929e-09
8.03974e-06
3.1643e-06
5.15058
0.00497628
9.54492e-05
4.42859
6.35996e-08
0
-4.58225e-09
4.73326
0
1.5824e-08
0
4.31233
2.6635e-08
0
3.90603
-0.00647513
7.69742
-2.67797e-10
5.68416e-09
5.35878
2.77106e-10
1.39138e-08
1.95804e-08
-9.64205e-09
7.97914e-09
1.25141e-10
3.1103e-10
0
0
-1.13576e-08
6.24832e-05
0
0
6.24442e-09
0
-0.000106751
0
7.30886e-07
-9.93901e-09
-8.79879e-10
1.23635e-08
1.52618e-05
4.79863e-07
-5.57733e-10
2.68999e-09
3.54772e-09
1.88859e-10
1.43271e-10
-1.9952e-09
0
-4.65116e-09
-3.87752e-09
2.87231e-06
2.36583e-06
1.29922
-7.022e-09
0
0
-2.99717e-05
1.79862e-10
7.74233e-10
-1.38883e-09
8.40482e-09
9.16756e-10
1.43634e-05
1.26785e-06
-3.85083e-09
7.99453e-10
-6.11622e-09
0
0.000964326
0
0.000272679
-1.02197e-10
2.51429e-07
1.68365e-10
1.18625e-10
0
7.10367e-08
0
3.86954e-08
0
1.30276e-10
0.0112825
0.00797703
-0.000486014
-9.69968e-06
-1.62782e-05
0.13418
-4.14302e-06
0
-3.57831e-05
1.53094e-10
2.20165e-08
5.84052e-09
0
0.0562443
3.59289e-09
2.61824e-09
1.67105e-07
1.59506e-10
0
5.26002e-08
4.53016e-08
0
3.82842e-10
0
-1.38658e-05
5.63477e-10
0
-1.15284e-05
0
-2.72104e-05
1.32353e-06
1.34234e-10
1.34955e-05
1.1706e-10
1.15818e-05
0.00117378
7.12494e-08
0
0
-5.10318e-09
1.71862e-07
2.07793e-10
8.05999e-08
1.96675e-08
0.000420734
1.21239e-07
1.59016e-10
0
3.04025e-08
5.49739e-10
-2.54856e-10
2.13896
4.23406e-08
7.33562e-05
2.92242e-08
3.54907e-08
0
-4.96321e-06
0
2.42192e-07
6.73074e-10
4.49984e-08
2.75676e-08
1.47668e-08
7.35373e-05
0
-1.89621e-05
0.964093
-9.06511e-05
1.05725
-6.09666e-08
-1.86773e-07
5.47946e-06
1.25432
4.83795e-10
6.73035e-10
1.733e-09
0
1.45356e-08
5.53971e-09
0
0
3.92308e-08
0
-3.52596e-08
7.60034e-10
2.33376e-09
1.21175e-09
-1.32152e-08
0
0
8.15605e-09
0
-0.00437916
-7.08895e-10
-2.45462e-09
0
0.00216894
-2.2781e-09
5.12607e-08
2.58023e-09
0
-1.90445e-06
0
0.005943
-2.7618e-09
1.59781e-07
2.16156e-09
2.31713
-3.18152e-09
1.18931e-10
0.00433472
1.06727e-08
0
0.000197283
-0.00149099
2.06953e-08
4.87843e-10
0
-1.38017e-10
-0.00139907
0
2.40969e-08
1.9555e-10
0.000340338
1.67461e-08
1.0897e-10
-0.000624831
0
3.32742e-08
1.77001e-10
0.000168174
0.000692741
2.23459e-08
0
-0.000351166
1.56111e-08
4.76189e-08
1.63023e-08
-3.60319e-07
0
-2.26899e-09
1.56173e-08
0
-4.88767e-09
2.26768e-07
1.59573e-07
0.159474
1.36886e-10
1.47134e-10
4.20001e-06
2.41094e-06
-4.92214e-09
1.84814e-08
1.57558e-08
1.56327e-09
1.66882e-08
0
1.21061e-07
-4.26562e-10
-4.9706e-09
3.76172e-08
1.67794e-05
6.35673e-07
-1.71992e-09
-5.6066e-09
0.00548519
2.30428e-05
0
0.00185386
0.000570769
0.00184269
9.4436e-09
1.00639e-05
0.000400648
0
-3.89372e-09
3.11168e-07
2.35201e-10
-4.81781e-08
0
9.20393e-10
-1.26161e-07
7.54635e-06
8.72732e-10
8.63312e-10
1.36275e-10
-2.97727e-09
0
-2.16625e-05
0
1.19596e-07
-1.32218e-07
0
5.862
0
3.88822e-09
0
5.77477e-06
2.15134e-09
7.45533e-08
0
1.48937e-08
0
4.32138e-09
6.38089e-06
2.0857e-09
0
3.96692e-06
1.85842e-09
-1.12701e-06
-2.18312e-09
-8.33511e-06
0
1.1012e-06
3.22258e-10
0.00729568
-3.82736e-09
2.24574e-09
4.52497
4.31823e-10
-0.00050895
2.87613e-09
0.936448
4.08338e-10
0.00723935
-6.78726e-05
-7.29743e-07
0
0.0044794
3.60114e-10
-0.0019662
5.22507e-07
-1.39261e-08
0
2.29964e-10
0.00298512
3.87443e-07
-2.06633e-07
0
-1.45427e-08
0
9.7146e-09
1.23789e-06
0.00429904
8.8302e-10
0.00506396
7.46197e-09
0
-2.93697e-06
2.43934e-05
8.59854e-10
0.00765066
4.02713e-05
7.02716e-10
0
1.01369e-10
-4.48899e-07
-5.71612e-05
1.01676e-07
4.23732e-10
0
1.43858e-10
-4.04914e-10
6.37337e-10
1.00415e-05
0.00741053
0
-1.60219e-10
2.53549e-09
5.72905e-10
7.94129e-08
-3.79105e-07
0
4.48653
0
1.10596e-05
0
2.26284e-08
0
6.04236e-08
1.48552e-08
1.32808e-08
-0.00296718
1.62993e-10
1.8004e-06
2.0957e-07
1.23627e-09
0
-8.35431e-05
1.37706e-07
9.81895e-10
0
4.79903e-10
-5.01097e-09
0
-2.95121e-09
0
8.92608e-09
0
4.45299e-09
0
-4.10418e-09
0
0
6.80076e-09
0.000415961
2.22669e-08
0
0.000238838
0
-9.04766e-07
1.7736e-09
0
1.80614e-07
2.27056e-08
3.87898e-09
-3.28971e-05
9.20364e-08
1.57518e-08
0
5.59027e-08
0
0
1.27091e-06
0.000101175
-1.99683e-09
1.09648e-08
-2.86189e-07
0
-2.203e-05
3.03109e-10
-4.64921e-08
1.30626e-08
7.08455
3.79796e-10
0
0
-0.000110017
0
1.9225e-06
6.64345e-10
1.94288e-06
0
0
0
-2.93064e-06
1.23562e-07
-9.18251e-09
0
8.53573e-07
7.50753e-05
-7.11137e-07
1.65707e-08
0
-8.81196e-10
0
0
0
2.95779e-09
4.62226e-09
2.48985e-06
3.54782e-09
7.06916e-09
4.70455e-05
0
2.89725e-06
-9.24203e-08
0
-7.14469e-09
2.48605e-06
6.88549e-10
2.112e-06
6.8568e-08
2.22823e-09
0
4.80225e-10
0
2.05218e-09
1.72275e-05
5.64938e-09
5.26236e-10
2.8323e-09
0.000142657
3.54989e-08
0
-5.60304e-05
0
9.06494e-10
0
6.73988e-09
0
-8.57871e-09
0
1.86548e-09
0
4.40138e-10
0
3.12278e-09
3.14336e-09
-1.67381e-10
0
3.90863e-06
1.93049e-06
-4.34389e-07
0.0447426
7.8965e-08
3.63649e-06
2.72236e-09
8.63016e-05
0
-1.71041e-07
0.128918
1.04011e-09
3.20376e-09
1.51775e-10
-5.99988e-09
0
4.33296e-08
-1.15019e-09
0
0.276711
2.39484e-10
0
6.83976e-09
0.00021183
1.52259e-08
1.02584e-06
1.88439e-05
0
7.66064e-10
0
0.294066
3.26395e-10
0
4.2385e-09
3.41929e-09
2.34388e-07
0.00339966
3.03291e-10
-0.00683927
8.64138e-10
0.0182253
-2.95507e-07
-4.1692e-09
0
2.02297e-08
0.00422898
0
2.22589e-06
3.24316e-10
0.00272202
0
0
0
1.07838e-08
-4.48878e-07
0
6.24834e-09
9.55038e-09
1.11048e-10
0
9.13499e-10
0.000108867
0.000102214
4.12146e-06
2.92208e-09
-2.11959e-06
1.28439e-09
2.22073e-08
0
-7.07282e-10
0
1.69105e-08
0
-6.27803e-08
4.28659e-08
0
1.75809e-08
0
1.22052e-08
1.84217
5.10943e-10
-6.00175e-09
4.14256e-10
-8.79399e-10
-0.00208986
6.00918e-09
0
1.64359e-10
0.0077356
0
3.29852e-08
3.12395e-09
0
-3.48635e-06
8.28173e-05
2.50038e-07
5.53837e-05
1.0541e-07
3.4142e-10
4.26901e-08
6.72356e-10
3.91085e-06
4.76361e-10
-0.00452899
6.92038e-08
3.9197e-10
0.0695181
0
-7.91137e-10
-2.38008e-09
0
0.00113086
1.82617e-08
-0.000344262
-1.26925e-09
3.87868e-09
2.82222e-07
2.96336e-06
0
2.46325e-07
0
0
1.08105e-08
0.00461356
5.25568e-09
0
0
1.85264e-08
5.93544e-09
0
3.48711e-05
-4.38004e-10
0
-6.3924e-06
2.27133e-08
0
7.54829e-09
5.27466e-05
0
1.02435e-06
3.10285e-05
-0.00102601
6.13701e-07
-0.000162818
0
-1.81694e-06
5.41723e-09
0.0666679
0
1.22301e-06
1.90175e-08
1.21142e-07
0
0
-1.0336e-07
8.61712e-08
0
1.58499e-06
0
0
-3.86149e-08
1.6423e-06
6.42917e-09
7.95912e-09
0
0.000153614
-2.2077e-05
-2.60763e-10
0
0
1.10608e-08
0
3.4818e-09
0
0.000145034
2.87502e-08
9.2211e-05
-0.00557528
4.07189e-06
0.000174313
5.49826e-08
0
0
4.0197e-08
1.9562e-08
0
1.11451e-09
3.45184e-08
0
0
2.25699e-08
6.26866e-10
1.51028e-08
1.46856e-08
6.59727e-10
3.47217e-10
1.30118e-08
1.45216e-08
-0.000325611
6.66062e-06
4.3319e-09
0
4.68541e-06
1.11538e-05
9.98756e-06
8.10294e-09
0
2.89573
2.71052e-08
2.02588e-09
0
8.86559e-09
3.06814e-09
0
7.86831e-06
8.27895e-08
2.90775e-09
0
4.95738e-09
4.76902e-08
0.0516857
2.45934e-08
0
0.024455
0
0
1.29815e-08
5.54166e-08
0.256329
1.4303e-09
0
1.37976e-08
-8.56153e-06
0
9.86448e-05
6.77958e-07
0
2.50383e-09
2.97275e-09
8.14179e-06
1.70084e-09
-7.98259e-05
2.18021e-06
1.357e-09
0
-1.96686e-05
1.23264e-06
-2.72416e-05
0
2.63091e-07
-1.19043e-05
0
1.19158e-07
0
2.24989e-09
3.45913e-09
5.92873e-05
2.76947e-10
-0.00534854
1.57126e-07
0.000161639
1.56961e-08
0
3.12027e-08
4.70408e-08
5.1045e-05
4.79503e-09
-0.00134823
2.98327e-06
1.04021e-08
0
2.03234e-10
0
-0.00125
-1.82272e-09
0
-0.000639998
2.12132e-10
0.0025475
1.99617e-07
0
2.19458e-09
-5.16775e-09
0
2.06537e-06
8.30185e-08
6.04007e-10
1.02536e-07
6.61573e-05
-5.43586e-09
1.16769e-08
-4.04339e-09
8.39929e-09
-7.47527e-09
4.83418e-05
0.0381389
-9.08439e-10
6.19888e-09
-2.72642e-09
9.10705e-09
0
0.00218059
-3.54359e-07
-2.31656e-06
-1.22534e-06
0.352928
1.2043
0.197455
6.72928e-10
1.87637e-10
1.48775e-08
-1.16177e-06
0.000118322
-4.58063e-09
0
0.0755805
1.90791e-06
1.36908e-09
-1.9447e-06
0
1.14365e-07
0.000523828
3.10336e-09
-0.000119738
2.06518e-07
4.47864e-09
0
2.20867e-06
5.76169e-05
-1.96675e-10
4.23207e-05
0.00137632
0
-0.000363156
0
9.45019e-09
2.10634e-06
2.23821e-05
-0.00183662
-2.38913e-09
5.76501e-09
-2.31662e-09
-5.25875e-05
-0.00193355
-7.0046e-09
2.35731e-09
0
-1.21298e-10
-3.50752e-08
0
7.51717e-09
0.000811697
1.14439e-08
3.36787e-06
-0.00353908
-0.00255557
3.22004e-10
-1.69739e-10
1.9991e-10
0
-1.09701e-10
1.93636e-08
0
0
0
0
0
1.1078e-08
0
5.90804e-10
8.14844e-09
0
0
-2.38397e-10
0
-2.59112e-10
8.2827e-09
6.57643e-10
5.38824e-06
0
1.21779e-06
2.27117
9.64872e-10
9.02673e-10
-0.000654507
1.56307e-08
3.88327e-09
0.0636182
-9.40914e-08
1.8627e-08
-5.90435e-09
6.42584e-09
-1.05916e-08
2.34482e-09
0
1.50324e-09
0
8.38075e-09
1.74813e-10
1.55751e-07
0
5.47082
0.000104597
0
-0.000610604
0
1.29041e-09
0
6.92906e-10
4.15437e-07
0
1.75405e-10
0
2.05528e-10
-1.6921e-08
0
1.83061e-07
2.18078e-08
0
2.3275e-07
0
0
1.45764e-07
0
0
1.01638e-07
2.25627e-07
0
2.15717e-08
0
1.57769e-06
1.99193e-05
3.64286e-06
1.10642e-05
3.48261e-07
1.04151e-06
9.53517e-05
4.65371e-08
0
-9.23313e-06
-1.28848e-07
0
6.22349
2.4634e-08
0.000554533
1.5967e-05
1.04644e-05
0
0
-7.10897e-06
0.0587466
-1.00666e-06
-2.71125e-09
0
-1.13742e-08
0
0
5.36394e-08
1.14352e-08
0
0
2.19247e-08
0.206091
0
7.16866e-10
-1.59498e-09
0
0
0
-6.69725e-10
0
0.998171
1.79945e-09
0
0
0
9.96095e-07
-1.15543e-09
0
0.79802
-1.67622e-07
-8.22875e-10
0
0.00096669
0.00134784
1.53745e-10
-0.00154389
-5.02727e-09
1.18868e-08
-1.00085e-09
0
-6.5033e-06
-2.51681e-09
0
0
-2.07743e-09
0
1.13443e-10
-0.000375802
0.174259
0.0325519
0.0194954
0.0316716
0.00736443
4.56782e-09
0.45036
7.05312e-09
0.114227
8.99156e-09
0.0413789
1.09783e-08
0.0948293
5.08574e-07
0
-1.05786e-07
-2.33657e-09
7.6669e-07
9.27653e-08
0
2.61414e-07
0
1.45205e-07
0
9.19378e-08
0
0
0
-2.79872e-10
0.0153828
-9.71748e-07
0
3.23811e-08
9.63608e-05
0.000179364
9.75428e-05
-3.44204e-07
0
-1.36145e-07
0
5.19821e-05
-0.000282238
-5.64355e-05
8.31257e-08
-0.000506798
-9.28122e-09
0
4.97049e-08
0
-0.000115013
-2.66835e-05
5.55741e-08
0
-8.27967e-06
-3.61216e-07
0
3.64735e-07
1.47589e-06
-2.0832e-06
0
8.36871e-06
1.97039e-06
0
4.87805
-1.85986e-06
0
1.18992e-05
1.11466e-06
0
5.05551
-2.04299e-06
0
1.45515e-05
-1.38588e-06
0
1.01528e-05
1.05108e-07
0
1.11962e-06
1.81029e-09
0
0
0
0
0
2.412e-09
1.17584e-07
0
0
0
5.94672e-08
2.86338e-08
0
2.037e-07
0
0
3.87082e-08
0.00220493
7.19873e-07
1.10982e-09
1.31467e-09
7.90593
0.118069
4.379e-07
0
8.46761
3.63399e-07
3.31423e-10
8.75372
5.60669e-05
9.05718e-07
1.04915e-10
8.39829
3.67152e-05
0.813578
0.81041
0.911765
0.863034
0.984271
-3.14139e-07
0.000124793
1.38378
0
6.87221e-10
5.41059
-1.3046e-06
0.000155513