# vtk DataFile Version 2.0
Unstructured Grid by M++
ASCII
DATASET UNSTRUCTURED_GRID
POINTS 15808 float
  0.804688   0.710938 0
  0.804688   0.742188 0
  0.882812   0.984375 0
  0.812500   0.937500 0
  0.796875   0.984375 0
  0.875000   0.726562 0
  0.804688   0.656250 0
  0.945312   0.625000 0
  0.867188   0.828125 0
  0.773438   0.984375 0
  0.953125   0.546875 0
  0.781250   0.984375 0
  0.781250   0.976562 0
  0.976562   0.882812 0
  0.906250   0.945312 0
  0.953125   0.632812 0
  0.828125   0.734375 0
  0.937500   0.562500 0
  0.757812   1.000000 0
  1.000000   0.539062 0
  0.820312   0.976562 0
  0.953125   0.773438 0
  0.773438   0.937500 0
  0.828125   0.929688 0
  0.789062   0.937500 0
  0.835938   0.937500 0
  0.898438   0.750000 0
  0.921875   0.773438 0
  0.984375   0.523438 0
  0.804688   0.960938 0
  0.859375   0.960938 0
  0.765625   0.617188 0
  0.820312   0.945312 0
  0.804688   0.992188 0
  0.914062   0.921875 0
  0.835938   0.546875 0
  0.929688   0.945312 0
  0.953125   0.992188 0
  0.828125   0.507812 0
  0.859375   0.625000 0
  0.796875   0.734375 0
  0.789062   0.726562 0
  0.789062   0.781250 0
  0.953125   0.929688 0
  0.851562   0.531250 0
  0.757812   0.750000 0
  0.867188   0.578125 0
  0.812500   0.976562 0
  0.929688   1.000000 0
  0.773438   0.710938 0
  0.953125   0.804688 0
  0.867188   0.546875 0
  0.898438   1.000000 0
  0.906250   0.992188 0
  0.937500   0.953125 0
  0.929688   0.953125 0
  0.773438   0.796875 0
  0.937500   0.945312 0
  0.929688   0.937500 0
  0.765625   0.789062 0
  0.757812   0.945312 0
  0.968750   0.648438 0
  0.773438   0.851562 0
  0.937500   1.000000 0
  0.851562   0.703125 0
  0.789062   0.945312 0
  0.968750   0.507812 0
  0.804688   0.984375 0
  0.765625   0.953125 0
  0.859375   0.539062 0
  0.914062   0.593750 0
  0.851562   0.835938 0
  0.789062   0.812500 0
  0.953125   0.960938 0
  0.851562   0.562500 0
  0.781250   0.804688 0
  0.945312   0.953125 0
  0.765625   1.000000 0
  0.757812   0.992188 0
  0.765625   0.992188 0
  0.812500   0.750000 0
  1.000000   0.929688 0
  0.835938   0.687500 0
  0.812500   1.000000 0
  0.914062   0.960938 0
  0.921875   0.960938 0
  0.921875   0.953125 0
  0.781250   0.859375 0
  1.000000   0.765625 0
  0.890625   0.742188 0
  0.992188   0.812500 0
  0.898438   0.953125 0
  0.796875   0.953125 0
  0.976562   0.515625 0
  0.906250   1.000000 0
  0.914062   1.000000 0
  0.914062   0.992188 0
  0.984375   0.804688 0
  0.984375   0.664062 0
  0.812500   0.523438 0
  0.859375   0.929688 0
  0.867188   0.921875 0
  0.898438   0.664062 0
  0.867188   1.000000 0
  0.875000   1.000000 0
  0.867188   0.992188 0
  0.875000   0.992188 0
  1.000000   0.953125 0
  0.835938   0.804688 0
  0.937500   0.789062 0
  0.906250   0.671875 0
  0.914062   0.679688 0
  0.945312   0.937500 0
  0.851562   0.921875 0
  0.945312   0.539062 0
  0.765625   0.976562 0
  0.937500   0.531250 0
  0.757812   0.968750 0
  0.828125   0.679688 0
  0.820312   0.968750 0
  0.812500   0.968750 0
  0.992188   0.531250 0
  0.921875   0.976562 0
  0.773438   0.976562 0
  0.773438   0.625000 0
  0.843750   0.945312 0
  0.929688   0.781250 0
  0.914062   0.984375 0
  0.828125   0.953125 0
  0.890625   0.710938 0
  0.835938   0.968750 0
  0.835938   0.960938 0
  0.828125   0.968750 0
  0.898438   0.718750 0
  0.929688   0.976562 0
  0.875000   0.976562 0
  0.757812   0.937500 0
  0.929688   0.500000 0
  0.929688   0.960938 0
  0.773438   0.765625 0
  0.835938   0.515625 0
  0.968750   0.984375 0
  0.960938   0.781250 0
  0.906250   0.960938 0
  0.906250   0.953125 0
  0.898438   0.968750 0
  0.898438   0.960938 0
  0.968750   0.703125 0
  0.796875   0.562500 0
  0.851562   0.976562 0
  0.851562   0.968750 0
  0.781250   0.687500 0
  0.890625   0.992188 0
  0.796875   0.593750 0
  0.890625   0.796875 0
  0.789062   0.976562 0
  0.968750   0.476562 0
  0.960938   0.468750 0
  0.890625   0.968750 0
  0.890625   0.960938 0
  0.953125   0.718750 0
  0.898438   0.804688 0
  1.000000   0.820312 0
  0.968750   0.562500 0
  0.789062   1.000000 0
  0.960938   0.554688 0
  0.781250   0.992188 0
  0.867188   0.937500 0
  0.929688   0.695312 0
  0.914062   0.765625 0
  0.906250   0.726562 0
  0.859375   0.921875 0
  0.867188   0.914062 0
  0.843750   0.960938 0
  0.851562   0.953125 0
  0.843750   0.953125 0
  0.921875   0.742188 0
  0.882812   0.484375 0
  0.914062   0.734375 0
  0.882812   0.476562 0
  0.960938   0.992188 0
  0.960938   0.984375 0
  0.859375   0.984375 0
  0.867188   0.968750 0
  0.937500   0.757812 0
  0.898438   0.500000 0
  0.929688   0.750000 0
  0.890625   0.492188 0
  0.898438   0.492188 0
  0.890625   0.484375 0
  0.875000   0.945312 0
  0.828125   0.539062 0
  1.000000   0.679688 0
  0.960938   0.695312 0
  0.992188   0.953125 0
  0.953125   0.687500 0
  0.898438   0.937500 0
  0.414062   0.523438 0
  0.406250   0.515625 0
  0.468750   0.523438 0
  0.398438   0.679688 0
  0.429688   0.562500 0
  0.257812   0.906250 0
  0.859375   0.835938 0
  0.250000   0.898438 0
  0.851562   0.828125 0
  0.906250   0.781250 0
  0.281250   0.867188 0
  0.882812   0.757812 0
  0.257812   0.843750 0
  0.492188   0.687500 0
  0.906250   0.750000 0
  0.281250   0.835938 0
  0.390625   0.843750 0
  0.398438   0.851562 0
  0.906250   0.703125 0
  0.281250   0.789062 0
  0.593750   0.132812 0
  0.898438   0.695312 0
  0.273438   0.781250 0
  0.585938   0.125000 0
  0.445312   0.726562 0
  0.406250   0.523438 0
  0.445312   0.781250 0
  0.398438   0.523438 0
  1.000000   0.453125 0
  0.437500   0.781250 0
  0.468750   0.726562 0
  0.960938   0.640625 0
  0.882812   0.679688 0
  0.257812   0.765625 0
  0.570312   0.109375 0
  0.890625   0.687500 0
  0.265625   0.773438 0
  0.578125   0.117188 0
  0.382812   0.664062 0
  0.390625   0.671875 0
  0.921875   0.718750 0
  0.296875   0.804688 0
  0.609375   0.148438 0
  0.429688   0.500000 0
  0.421875   0.500000 0
  0.367188   0.757812 0
  0.406250   0.859375 0
  0.429688   0.656250 0
  0.492188   0.546875 0
  0.484375   0.539062 0
  0.484375   0.546875 0
  0.882812   0.687500 0
  0.257812   0.773438 0
  0.500000   0.851562 0
  0.453125   0.734375 0
  0.492188   0.539062 0
  0.421875   0.593750 0
  0.429688   0.601562 0
  0.437500   0.609375 0
  0.906250   0.789062 0
  0.281250   0.875000 0
  0.414062   0.570312 0
  0.460938   0.828125 0
  0.421875   0.570312 0
  0.429688   0.570312 0
  0.437500   0.578125 0
  0.257812   0.789062 0
  0.890625   0.718750 0
  0.265625   0.804688 0
  0.265625   0.796875 0
  0.882812   0.718750 0
  0.257812   0.804688 0
  1.000000   0.515625 0
  0.375000   0.601562 0
  0.382812   0.609375 0
  0.406250   0.570312 0
  0.398438   0.570312 0
  0.406250   0.578125 0
  0.390625   0.812500 0
  0.460938   0.632812 0
  0.453125   0.625000 0
  0.390625   0.875000 0
  0.953125   0.460938 0
  0.257812   0.796875 0
  0.882812   0.710938 0
  0.265625   0.906250 0
  0.867188   0.835938 0
  0.953125   0.492188 0
  0.960938   0.500000 0
  0.281250   0.953125 0
  0.460938   0.515625 0
  0.273438   0.945312 0
  0.453125   0.507812 0
  0.265625   0.937500 0
  0.398438   0.625000 0
  1.000000   0.640625 0
  0.375000   0.726562 0
  0.976562   0.656250 0
  1.000000   0.648438 0
  0.375000   0.734375 0
  0.476562   0.531250 0
  0.453125   0.789062 0
  0.414062   0.531250 0
  0.914062   0.453125 0
  0.421875   0.531250 0
  0.437500   0.562500 0
  0.437500   0.554688 0
  1.000000   0.710938 0
  0.375000   0.796875 0
  0.429688   0.554688 0
  0.468750   0.804688 0
  0.429688   0.546875 0
  0.929688   0.468750 0
  0.859375   0.453125 0
  0.867188   0.632812 0
  0.437500   0.859375 0
  0.875000   0.640625 0
  0.906250   0.679688 0
  0.281250   0.765625 0
  0.414062   0.750000 0
  0.726562   0.093750 0
  0.406250   0.750000 0
  0.406250   0.664062 0
  0.890625   0.679688 0
  0.265625   0.765625 0
  0.500000   0.671875 0
  0.898438   0.687500 0
  0.273438   0.773438 0
  0.484375   0.515625 0
  0.421875   0.679688 0
  0.882812   0.703125 0
  0.945312   0.453125 0
  0.476562   0.507812 0
  0.414062   0.671875 0
  0.281250   0.843750 0
  0.421875   0.562500 0
  0.960938   0.484375 0
  0.335938   0.570312 0
  1.000000   0.742188 0
  0.375000   0.828125 0
  0.476562   0.875000 0
  0.468750   0.867188 0
  0.484375   0.859375 0
  0.484375   0.867188 0
  0.460938   0.796875 0
  0.421875   0.539062 0
  0.921875   0.460938 0
  0.453125   0.796875 0
  0.414062   0.539062 0
  0.500000   0.562500 0
  0.500000   0.507812 0
  0.414062   0.867188 0
  0.437500   0.687500 0
  0.859375   0.679688 0
  0.257812   0.875000 0
  0.859375   0.804688 0
  0.453125   0.820312 0
  0.414062   0.562500 0
  0.460938   0.687500 0
  0.398438   0.820312 0
  0.882812   0.468750 0
  0.257812   0.554688 0
  0.859375   0.484375 0
  0.484375   0.656250 0
  0.437500   0.531250 0
  0.445312   0.671875 0
  0.437500   0.804688 0
  0.398438   0.546875 0
  0.445312   0.812500 0
  0.406250   0.554688 0
  0.281250   0.898438 0
  0.382812   0.835938 0
  0.414062   0.835938 0
  0.867188   0.460938 0
  0.890625   0.789062 0
  0.265625   0.875000 0
  0.867188   0.804688 0
  0.265625   0.882812 0
  0.867188   0.812500 0
  0.492188   0.718750 0
  0.468750   0.640625 0
  0.406250   0.828125 0
  0.492188   0.515625 0
  0.500000   0.859375 0
  0.437500   0.718750 0
  0.437500   0.570312 0
  0.484375   0.679688 0
  0.445312   0.507812 0
  0.390625   0.562500 0
  0.445312   0.789062 0
  0.406250   0.531250 0
  0.476562   0.570312 0
  0.437500   0.507812 0
  0.929688   0.726562 0
  0.304688   0.812500 0
  0.617188   0.156250 0
  0.273438   0.890625 0
  0.265625   0.828125 0
  0.437500   0.539062 0
  0.445312   0.867188 0
  0.273438   0.835938 0
  0.468750   0.718750 0
  0.437500   0.664062 0
  0.453125   0.679688 0
  0.382812   0.718750 0
  0.695312   0.062500 0
  0.468750   0.562500 0
  0.882812   0.648438 0
  0.406250   0.546875 0
  0.484375   0.570312 0
  0.484375   0.625000 0
  0.398438   0.539062 0
  0.898438   0.781250 0
  0.273438   0.867188 0
  0.406250   0.562500 0
[...]
POINT_DATA 15808
SCALARS scalar_value float 1
LOOKUP_TABLE default
-1.30436e-07
-3.73903e-08
0
-1.2008e-10
0
-9.35566e-09
-1.10048e-06
-7.05342e-08
-3.55936e-10
0
-6.23111e-07
0
0
0
0
-3.75917e-09
-2.3785e-08
-9.17798e-07
0
-6.19246e-07
0
-1.97266e-10
0
-1.07681e-10
0
0
-3.33916e-09
-5.13639e-10
-8.19034e-07
0
0
-5.67949e-06
0
0
0
-2.48698e-05
0
0
-2.1439e-05
-6.92921e-07
-6.82817e-08
-1.19345e-07
-1.36879e-08
0
-3.58098e-05
-1.26686e-07
-2.78314e-06
0
0
-3.69198e-07
0
-5.95877e-06
0
0
0
0
-1.58558e-08
0
0
-2.80874e-08
-2.34438e-10
-1.51865e-08
-3.52174e-09
0
-3.86149e-08
0
-1.69649e-06
0
-1.14787e-10
-1.24262e-05
-8.33442e-08
-7.12146e-10
-6.52636e-09
0
-7.76251e-06
-9.27059e-09
0
0
0
0
-2.16876e-08
0
-1.09217e-07
0
0
0
0
-2.18943e-09
0
-2.19517e-09
0
0
0
-1.28348e-06
0
0
0
0
-2.60696e-09
2.75771e-06
0
0
-6.60884e-08
0
0
0
0
0
-2.11427e-09
-1.85646e-10
-2.50701e-08
-2.94076e-08
0
-1.15743e-10
-9.61357e-07
0
6.10816e-07
-1.21035e-10
-2.02907e-07
0
0
-5.02304e-07
0
0
-8.2192e-06
0
-2.99223e-10
0
0
-1.26614e-08
0
0
0
-1.01056e-08
0
0
-2.71295e-10
-1.45641e-05
0
-4.38636e-08
-4.07981e-05
0
-1.28205e-10
0
0
0
0
-1.31191e-09
-1.33829e-05
0
0
-7.48421e-07
0
-1.47694e-05
-8.35733e-10
0
-1.23006e-06
-1.31522e-06
0
0
-1.30709e-09
0
0
-2.78533e-07
0
-4.76099e-07
0
0
-7.07626e-09
-9.65011e-10
-1.34935e-09
0
-1.02376e-10
0
0
0
-1.97147e-09
-0.000147295
-4.87374e-09
-0.000163328
0
0
0
0
-5.39331e-10
-9.7096e-05
-9.72706e-10
-0.000132009
-0.000128483
-0.00014911
0
-3.03468e-05
-9.48002e-10
-2.457e-09
0
-5.21663e-09
0
0.0159409
0.0157102
-0.000228392
3.10546e-05
-0.00145049
1.09364e-10
-4.9188e-10
1.23142e-10
-6.64658e-10
-6.07554e-10
8.87503e-10
-1.46068e-09
-6.6531e-10
-0.000210707
-3.38186e-09
-1.95665e-09
-3.10063e-09
-1.04677e-07
-1.58097e-08
-4.34048e-09
7.54317
-1.60462e-08
-6.4135e-09
14.3654
-2.70261e-06
0.0117828
-2.60914e-06
0.00380189
-1.49949e-08
2.54776e-07
-2.8828e-05
-9.80862e-09
-6.61428e-08
-8.22804e-09
4.15578
-2.95041e-08
-8.01363e-09
8.3751
-6.31866e-06
-3.45809e-06
-6.65238e-09
-2.94905e-09
2.5657
0.176062
0.192813
-6.16928e-07
-1.78621e-07
-0.000123683
0.000172014
0.000277601
7.6821e-06
-4.54191e-08
-6.19132e-09
-3.46983e-06
-7.80642e-06
0.000121716
0.000391341
-0.000462642
-0.000575331
-3.95954e-10
4.09204e-10
0.00549314
-1.95212e-06
0.000642403
-0.00146994
-0.00128428
-2.9549e-09
-1.31884e-08
-1.22335e-09
-1.77756e-09
-1.02672e-08
-9.77836e-10
-4.45346e-08
-2.22477e-05
-3.92265e-05
0.00319917
-0.000436457
0.0023755
1.25942e-05
-0.000542379
-0.000587631
-3.86444e-08
-1.10911e-06
-1.69592e-09
-1.29926e-08
0
-2.45235e-10
-4.33714e-06
-2.18298e-06
0
-0.00117056
0
-0.00275889
0
-1.75103e-05
-3.14425e-09
7.11439e-06
-5.15559e-09
-2.57693e-09
3.02876e-06
0.000236916
-2.81631e-06
0.0130426
1.82453e-05
0.00919577
-0.00117458
-0.00124281
-3.80995e-10
8.38971e-06
-0.00111184
-4.75702e-06
-0.000849281
1.78627e-05
-0.000195822
-3.72693e-07
-3.47219e-07
-2.04262e-07
-2.03988e-08
-1.79135e-08
0.000136058
0.558256
0.000285316
0.00110067
-4.62229e-08
-1.08445e-08
-0.000228793
-1.8575e-08
-1.0053e-08
8.84986e-05
1.4762e-05
-1.95161e-08
-3.21219e-06
-5.92125e-05
0.000399869
-2.39656e-09
0.00111686
-2.90154e-06
-2.87612e-06
-1.3582e-10
-2.13751e-08
-4.01675e-07
-4.77419e-07
-1.47013e-06
-1.09231e-06
-3.23523e-06
0.00581303
2.23519e-05
-9.15915e-07
0.0104478
0.000210707
0.000319364
-2.59868e-07
-3.48736e-05
-6.47351e-08
-1.07986e-10
-5.67767e-10
-1.43509e-06
0.0060565
-9.65564e-05
-2.24166e-06
-0.000160945
-2.90355e-05
-7.60814e-05
-0.000331441
-0.00217201
-9.7557e-05
1.57863e-06
0.00036163
-7.56432e-07
0.00396669
0
8.81606e-09
-3.34828e-07
-0.000182252
-9.91108e-10
1.38313e-10
-7.53897e-10
1.37102e-10
-7.39945e-10
-6.09213e-05
-0.000488008
-6.74433e-07
0.000267441
-2.93435e-06
-3.92263e-06
-0.00117498
-0.00022562
0.00869534
-0.00079635
-2.08632e-06
0.00702728
0.000854049
0.0191055
-2.72378e-09
-6.60112e-09
1.89956
-1.64381e-10
-7.10647e-10
-0.00156243
-3.89921e-07
-1.01193e-09
-3.7818e-05
-0.000107449
-9.35437e-05
3.89045e-06
6.25545
-0.00051957
-1.14646e-07
0.00491458
0.00225155
-0.000363014
-0.000416217
-1.03255e-09
2.58352e-10
0.00373929
-2.15695e-09
-4.68322e-10
0.000479201
-0.000416318
-1.89321e-07
0.00115715
-0.000515386
-2.74673e-07
0.00287508
-0.000392902
-0.000428948
-3.88324e-08
0.00202868
0.00162343
0.00614831
-0.000602668
0
-0.00130864
-1.16212e-09
-6.38442e-10
-0.000896735
0.0008322
-0.000375711
0
-0.00146669
0
0.000201187
0.00277414
0.00831822
-1.57458e-06
0.00333143
-0.000156846
0.00187752
0
-1.57241e-10
1.30211e-10
-2.49791e-10
-1.00086e-10
0.00703369
-2.09166e-05
-0.000214137
-2.99869e-07
0.00229626
-1.08449e-08
-1.4385e-09
1.15339e-05
-0.000226633
-4.87012e-07
4.69582e-06
-3.90143e-07
-2.70769e-06
-0.000845731
-0.000166364
-1.10882e-09
-7.90637e-10
0.000956475
-0.000629813
-4.21174e-08
-0.000512517
-0.00117769
-0.00062186
-1.6276e-09
-5.38426e-10
-0.000430479
-3.57677e-05
8.83061e-06
-3.81018e-05
-3.99354e-05
-2.83961e-07
-6.14172e-10
0.00217215
-4.82819e-10
1.21134e-10
-6.82514e-10
-0.00288945
-6.24885e-05
1.17019e-05
9.03033e-06
2.27052e-05
2.53192e-05
-1.51339e-09
1.50697e-05
6.22664e-05
4.16372e-05
-2.48624e-09
-6.83208e-10
-1.88823e-09
-7.88898e-10
-2.95257e-09
0.00010614
0
-1.95893e-08
-1.05765e-09
-9.06752e-10
0
-1.51231e-09
-2.49701e-05
-4.07604e-05
0.000215229
-0.000935481
-9.64059e-10
-4.03449e-08
0.000217149
7.83868e-05
-6.21214e-07
-6.14129e-07
0.000724298
1.15457
4.61836e-05
1.88662
-7.33516e-07
0.0014819
0.0128716
0.00415365
-1.43687e-07
-5.36597e-08
-3.47349e-05
-4.59011e-09
6.30108e-06
-0.000739311
4.3285e-06
-8.72451e-07
-4.64433e-07
-0.000490445
-6.31261e-07
-0.000278072
-4.61706e-06
-4.49459e-08
0.000305036
0.000425453
0.000368813
0.000225326
-3.61631e-10
-2.64824e-08
0.000146165
1.33687e-05
3.28733
2.4326e-05
0.000329001
-6.09687e-07
1.67146e-06
0
-2.50015e-09
-8.62954e-05
-0.00104568
-1.26608e-06
0.000109259
-0.000156589
2.01706e-05
-5.02187e-10
-2.5569e-05
-2.78227e-05
3.646e-06
-3.05136e-06
-3.91317e-06
-1.62612e-06
-1.82167e-06
-0.00101216
0.000798146
0.000964006
-2.93914e-06
-2.5031e-07
-1.56323e-10
-3.59066e-10
-6.32691e-05
-2.14414e-10
-1.25308e-08
0.000187223
0.000149844
0.000227938
0.000169674
-1.33864e-05
4.37053e-07
6.21777e-06
0.000752228
-2.30717e-05
-7.21845e-05
0.000772089
3.26881e-05
-9.60862e-06
-9.8623e-06
-2.72795e-05
-2.52441e-05
-4.27629e-06
-7.52424e-06
-0.000171169
-4.87832e-09
2.55316e-06
-3.90667e-05
-1.55903e-08
-0.000612747
-2.45727e-08
-0.00119765
-0.000999284
-0.00120464
0.00150766
0.00436593
0.00132816
-0.000120262
-1.62513e-10
-5.6396e-10
-1.82533e-05
-0.000323364
-9.08455e-07
-4.90685e-06
-3.82017e-06
-1.28916e-09
-1.85468e-08
0.00687929
0.00718331
-4.43103e-07
-2.1565e-06
-0.000410953
-0.000643098
-1.83165e-06
-1.73442e-06
-1.94307e-06
2.10891e-06
-0.00169071
-0.00106502
-5.86886e-06
8.14185e-08
7.40256e-06
-3.28976e-06
-3.86788e-06
-3.22133e-06
-2.98688e-06
-2.27841e-08
-2.37175e-08
4.71836e-06
-3.22477e-05
-6.10783e-09
0.143522
0.706318
-1.48361e-09
0
-5.73819e-09
-5.18687e-10
9.95837e-05
-2.19374e-08
-0.000238055
8.55343e-07
-1.76496e-05
5.04247e-06
-2.48534e-08
-2.84455e-08
-3.11973e-08
-9.74314e-07
-5.99831e-08
-1.19883e-06
0.237823
-1.56907e-08
0
0
0
-2.06445e-07
0
-4.72908e-07
-3.51349e-08
0
0.291792
-2.4081e-08
-3.52649e-05
0
-2.47486e-09
0
-4.96028e-09
0
-8.72583e-07
-0.00101482
-1.99908e-06
0
2.23271e-05
-1.71398e-10
-4.81705e-08
0
-7.60466e-08
-6.45145e-06
0
-6.901e-08
-2.06686e-08
-3.8146e-06
-5.15787e-10
-3.80186e-08
-8.6259e-09
-7.82728e-09
0
-1.85063e-08
-6.80293e-10
0
-2.06329e-05
-6.52494e-06
-1.79253e-07
0.000240927
0
0
-2.50226e-06
-7.6873e-07
-7.26595e-07
-5.94668e-06
-5.79766e-06
-2.95619e-09
0
-2.43068e-10
-2.455e-06
-8.17551e-08
-4.57334e-10
-3.54367e-06
-1.00853e-07
-8.34803e-08
0
0
-1.75635e-08
0
0.00013305
6.36393e-05
0
-2.70018e-09
0
0.770627
4.10443e-05
0
-4.64311e-09
0
0.852075
0.917719
2.00649e-05
0
0
0
-3.59118e-07
-6.19302e-07
0.111845
0.129392
-3.06509e-06
-6.21666e-08
0
-2.20082e-05
0
-2.12155e-05
-3.20394e-06
-3.64203e-06
-9.95838e-06
0
1.44505e-10
-2.55268e-09
0
0
-2.20119e-05
0
7.17186e-05
6.75759e-05
-9.38395e-08
-1.04307e-07
0.000187465
-2.43919e-05
-2.40936e-08
-1.78432e-05
1.83783e-06
0.000199777
0
0
0
-4.04071e-06
-7.82656e-08
1.62379e-05
-1.15548e-09
0
-2.17705e-06
0
0
-1.66206e-05
0
0
-2.70993e-05
0
0
-2.49957e-05
-5.6856e-07
-1.09049e-07
-8.80829e-10
-1.97966e-09
-1.86303e-09
0
-4.45354e-09
-5.13397e-08
1.16184e-05
-2.17284e-06
-7.6508e-06
-8.92343e-08
-1.34342e-10
-0.000441706
-8.07548e-06
0
0.671026
-1.04633e-05
-2.15221e-05
-3.07734e-05
-0.000761876
-5.97951e-07
-6.08754e-08
-0.000716555
-6.92017e-09
-3.14519e-10
-2.38066e-06
-2.28751e-06
-2.11469e-06
0.553936
-3.33238e-09
-8.25747e-09
0
0
-4.05806e-08
-2.61778e-06
-5.33851e-08
-3.45347e-06
-4.78432e-05
0.195416
-5.86038e-05
-4.29734e-05
-1.48246e-08
0
-4.20766e-05
0.161078
-0.00045775
-2.73276e-05
-4.5282e-05
-2.54229e-05
-2.32977e-05
-1.1266e-06
-4.54293e-06
-0.000651945
-4.36212e-08
-7.38517e-07
-7.05923e-08
-8.46932e-07
-8.05752e-10
-6.93002e-10
0
0
4.28407e-08
-4.59277e-10
-8.15091e-07
0
-1.09036e-06
-2.03886e-07
0
-2.3696e-05
-0.000141783
-0.000170999
-5.11545e-06
-1.73069e-10
5.29481e-05
-2.77433e-08
-1.37728e-10
1.24684e-05
-1.63882e-08
-1.32036e-10
3.6925e-07
-2.07461e-05
-1.61499e-08
-1.29591e-05
0.0143423
-1.89379e-05
-1.08842e-08
-6.81302e-06
0.0135561
1.93668e-05
-1.04184e-06
0
0.00992738
-1.75838e-05
-2.14952e-05
4.19895e-05
-2.51049e-07
0
-3.10557e-06
-1.1404e-07
2.74237e-07
-1.5901e-10
0
-9.12257e-09
-6.42896e-07
4.75684e-10
-5.73965e-09
2.03803e-06
-5.01162e-09
0
-2.39447e-06
-2.68501e-09
1.24478e-10
0.468521
0
0
-1.27581e-06
-1.36968e-06
0
-7.37811e-09
0
2.62684e-05
0.0145215
-9.45112e-08
-1.08757e-10
1.74344e-05
0
-8.12787e-07
0
-7.13159e-07
-2.20188e-08
-1.05746e-09
-6.1714e-07
-2.7151e-08
-7.9839e-08
-0.000569895
0
0
-1.85591e-05
0
1.78797e-06
-9.16713e-07
0
0
6.69938e-05
-5.80404e-10
-4.98053e-10
0
-8.20209e-10
0
0
0
-2.1774e-06
-1.07996e-08
0
0
-1.04625e-06
0
-1.58589e-08
0
-1.24986e-10
-1.2945e-08
-1.86646e-05
-6.79546e-08
0.694786
-0.000428993
-7.59718e-05
0.448724
-2.59234e-07
0
-3.63902e-07
0.554375
0
-1.10977e-07
0
0.4254
-6.39768e-08
0
0.324309
-0.00139638
6.18372
-6.05246e-09
-4.20153e-10
1.20745
-2.49506e-10
-7.50073e-10
-1.46314e-10
-2.47737e-08
0
-2.03022e-09
-2.36066e-10
0
0
-3.91757e-08
-0.000210635
0
0
-2.89137e-08
0
-3.0632e-05
0
-1.81822e-06
-4.31422e-08
-1.67801e-09
-1.03381e-09
-4.13185e-05
1.90643e-07
-1.30083e-09
-1.16466e-09
-2.5642e-08
-2.08466e-10
0
-1.18692e-08
0
-9.98037e-09
-7.56069e-09
3.75408e-08
-4.15248e-06
0.0391558
-7.31922e-08
0
-1.29129e-09
-5.24266e-05
-2.79411e-09
-2.18595e-09
-3.33758e-09
-6.1522e-08
-9.31761e-10
-2.97591e-05
-1.12874e-07
-9.08767e-10
-1.1301e-10
-1.09151e-08
0
2.8254e-05
0
-1.19331e-05
0
-5.24667e-07
-1.99618e-10
-1.42838e-10
0
-5.53666e-07
0
-1.10485e-07
0
-1.53341e-10
-0.00111253
-0.000719609
-1.78378e-05
-7.84007e-06
-1.42899e-05
0.00158828
-3.06175e-06
0
-4.22485e-05
-1.80117e-10
-3.1844e-08
-1.98014e-08
0
0.000391194
-1.39249e-08
-6.19387e-09
-2.66098e-07
-1.92394e-10
0
-3.64928e-07
-1.1272e-07
0
-2.6534e-10
0
-6.89278e-06
-8.97844e-10
0
-2.56622e-05
0
-2.27984e-05
-2.29325e-06
-1.64802e-10
-4.27499e-06
-1.51415e-10
-3.07096e-06
-0.000604073
-1.548e-07
-1.20947e-10
0
-1.11513e-08
-2.14162e-07
-2.50517e-10
2.75151e-08
-4.90305e-09
-0.000599232
-1.58393e-07
-1.99393e-10
0
-1.84185e-07
-1.76601e-10
-6.43257e-09
0.157822
1.39043e-08
-0.000716274
-7.95714e-08
-9.9086e-09
0
-4.44632e-06
0
1.55403e-07
-1.79321e-10
-1.36291e-07
-4.78508e-10
-6.76598e-08
-0.000623201
0
-1.4743e-05
0.0246962
-0.000114092
0.0258432
-7.10077e-08
2.22537e-08
-1.2139e-05
0.0638362
-2.54422e-09
-3.31299e-09
-5.30562e-09
0
-1.53728e-08
-6.76251e-09
0
0
-1.97818e-08
0
-4.55977e-08
-3.33696e-09
-1.8521e-09
-5.64602e-09
-4.67734e-08
0
0
-8.93406e-09
0
-0.00124718
-2.32282e-09
-5.05026e-10
0
0.000102642
-8.10961e-09
-1.07865e-07
-4.5895e-09
0
-2.47775e-06
0
0.00027939
-1.57311e-08
-2.40738e-07
-4.88863e-09
0.147906
-1.10805e-08
0
0.000159145
-8.16933e-08
0
-0.000568411
-5.50856e-05
-5.19731e-08
-6.03794e-10
0
-4.02567e-09
-6.64583e-05
0
-8.35856e-08
-3.01275e-10
-5.83464e-05
-2.52956e-08
0
-0.00036903
0
-1.07855e-07
-2.90979e-10
2.40087e-05
-6.77582e-05
-4.64909e-08
0
-0.000450434
-4.80875e-08
-2.34411e-08
-5.3622e-08
-0.000383371
0
-4.76757e-09
3.76054e-10
0
-7.97735e-09
-6.67853e-07
-5.17028e-08
0.00453463
-1.56373e-10
-1.69801e-10
-9.72607e-06
-3.02351e-08
-1.08598e-08
1.2891e-10
-6.19889e-10
-3.29697e-09
-6.26379e-08
0
-1.25519e-08
-5.13873e-09
-3.2828e-09
-2.13576e-08
-2.91763e-05
-4.76823e-08
-4.71371e-09
-8.42e-10
0.000250164
-1.95191e-05
0
9.30611e-05
2.44926e-05
-0.000789885
-3.55818e-08
-2.75219e-06
3.62058e-05
0
-2.23399e-08
-7.23612e-07
-2.65167e-10
-5.15576e-08
0
-5.81771e-09
-2.45452e-08
-2.33123e-07
-6.12867e-09
-1.83411e-10
0
-9.41831e-09
0
-2.52561e-05
-1.24059e-09
-6.4857e-08
-1.03612e-07
0
2.42499
0
-1.06949e-08
0
-6.29365e-06
-3.23623e-09
-1.20445e-08
0
-1.78288e-08
0
-6.70253e-09
-4.91987e-06
-2.91068e-09
0
-4.95544e-06
-3.4183e-09
-9.0544e-07
-3.63466e-09
6.94632e-06
0
2.86208e-07
-2.12554e-09
0.000195015
-9.97662e-09
-5.41574e-10
0.514401
-2.75574e-09
-0.000221389
-1.69891e-09
0.021095
-2.78916e-09
0.000168807
-1.68443e-06
-5.31188e-07
-1.09613e-10
0.000198925
-2.04795e-09
-0.000238542
-2.98574e-07
-2.25904e-07
0
-1.20022e-09
6.43219e-05
-2.00974e-07
5.31869e-08
0
-3.16531e-08
0
-3.37603e-09
-5.20842e-07
7.57252e-05
-6.33412e-09
-0.000134111
-6.12793e-09
0
-0.00021971
-3.88548e-06
-6.23887e-09
5.63988e-05
-0.000213334
-2.41874e-09
0
0
-1.68315e-07
-2.23535e-05
-1.21724e-08
-1.98519e-09
0
0
-1.99065e-08
-1.8373e-09
-1.67176e-06
0.00030892
0
-7.57614e-10
-2.36184e-09
-3.45443e-09
-4.31629e-08
1.02147e-07
0
1.57249
0
-8.22731e-06
-5.24381e-09
-1.79813e-07
0
-2.64081e-07
-1.25589e-08
-7.53741e-08
-0.000782754
-1.92992e-10
-3.11316e-06
-4.13935e-08
-2.93998e-09
0
-2.20567e-05
-9.37557e-09
-3.28695e-09
0
-1.95458e-09
-9.40544e-08
0
-3.16229e-08
0
-9.78138e-09
0
-8.62734e-09
0
-5.56319e-08
0
0
-9.0143e-09
-5.32354e-05
-1.38717e-07
0
-0.000570421
0
-4.55043e-07
-5.51674e-09
0
-6.93889e-09
-2.73372e-08
-5.10492e-09
2.8206e-05
-1.1335e-08
-8.5146e-08
0
-3.11448e-08
0
0
-3.40165e-07
-0.000201691
-6.84143e-08
-5.98974e-09
4.37779e-08
0
-4.55655e-05
-1.98576e-09
-7.50636e-08
-7.80785e-09
2.39797
-1.79935e-09
0
0
-2.10993e-05
-3.20876e-09
-3.68735e-06
-6.52354e-10
-2.83363e-06
0
-1.22185e-09
0
-1.81053e-06
-1.20095e-08
-9.94905e-08
0
-1.91801e-06
-0.000153841
-3.04419e-07
-1.40551e-08
0
-3.21037e-08
0
0
0
-9.10732e-09
-8.01126e-09
-4.95957e-06
-4.78523e-09
-2.29795e-08
-0.000536429
0
-3.67134e-06
-9.1214e-08
0
-1.37625e-08
-4.64134e-06
-6.53121e-10
-2.1506e-06
-2.44931e-08
-5.4063e-09
0
-2.9684e-10
0
-7.0878e-09
-7.84056e-06
-7.06978e-09
-3.59313e-09
-3.13334e-09
-6.91543e-05
-2.60826e-07
0
-0.00105818
0
-4.24912e-09
0
-1.01986e-08
0
-1.73223e-07
0
-9.0324e-09
0
-3.31367e-10
0
-1.15851e-08
-4.15243e-09
-1.03756e-09
0
-7.6929e-06
-1.03725e-07
-4.91892e-08
0.00148757
-3.36312e-08
-6.00166e-06
-4.91715e-09
0.000217638
0
-1.04462e-08
0.00487102
-3.13031e-09
-1.54121e-09
-1.5549e-09
-1.6982e-08
0
-1.79874e-08
-3.71287e-08
0
0.00428094
-3.15189e-10
0
-4.13829e-08
-0.00051787
-6.10292e-08
5.07185e-07
-7.91223e-07
0
-2.94111e-08
0
0.00144943
-3.3175e-10
0
-2.04701e-08
-5.39923e-09
2.02788e-07
6.13661e-05
-1.141e-09
-0.000360312
-6.47436e-09
0.000219247
-1.43524e-08
-9.72406e-09
0
-9.4285e-09
-4.01264e-05
0
-4.13546e-07
-2.22334e-09
-3.83176e-05
-8.43432e-09
0
0
-1.13559e-08
-1.91018e-07
0
-3.40244e-09
-1.83244e-08
0
0
-2.38589e-09
0.000204145
0.000247679
-6.90347e-06
-4.99767e-09
-1.3488e-06
-3.0997e-09
-4.49491e-10
0
-1.12351e-08
0
-5.15189e-08
0
-9.79112e-08
-1.16541e-07
0
-6.70412e-08
0
-4.01134e-08
0.107266
-2.61738e-09
-2.04912e-08
-4.09632e-09
-6.12854e-10
-0.000496683
-3.91935e-08
0
-2.78053e-10
0.00032244
0
-1.35838e-07
-4.2346e-09
0
-0.000207985
3.30736e-05
-7.43851e-07
-0.000116335
-1.70204e-07
-8.49452e-10
-9.92062e-08
-1.2598e-09
-1.00624e-06
-1.11991e-09
-0.000239641
-1.3766e-07
-1.08805e-09
0.00248849
0
-1.49325e-09
-6.23665e-10
0
-0.000525014
-1.46688e-08
-0.000480407
-1.26489e-09
-1.85403e-10
-9.13953e-08
-1.54927e-06
0
-1.10003e-07
-3.39512e-10
0
-4.98981e-08
0.000196974
-5.11108e-08
0
0
-5.59093e-08
-4.09764e-08
0
-7.83958e-05
-2.23318e-08
0
-1.18449e-05
-5.03941e-09
0
-1.44142e-08
-4.8273e-06
0
6.18814e-07
-7.55623e-05
-4.91711e-05
-6.00097e-08
-1.43377e-05
0
-7.23386e-06
-1.7628e-08
0.0016234
0
-6.68628e-08
-4.0416e-08
-6.17663e-08
0
0
-1.4114e-07
-1.53837e-07
0
-2.48692e-07
0
0
-7.45004e-08
-1.21296e-07
-7.02541e-10
-6.62418e-09
0
6.58926e-06
-1.08304e-06
-2.54467e-09
0
0
-9.965e-09
0
-4.28557e-09
0
-3.52344e-05
-8.26074e-08
1.61081e-05
-0.000279242
-1.83707e-07
-5.50013e-05
-8.92347e-09
0
0
-7.71044e-08
-6.80306e-08
0
-2.04951e-09
-5.54438e-09
0
0
-3.51337e-08
0
-1.10403e-07
-1.09903e-07
0
0
-9.40468e-08
-1.05179e-07
-8.44272e-05
2.84554e-08
-5.86802e-09
0
-9.42098e-06
1.92216e-07
-2.36992e-05
-8.27647e-09
0
0.370756
-7.20548e-08
-2.23414e-09
0
-1.42563e-08
-2.11283e-08
0
-1.72652e-05
-5.65337e-09
-2.29672e-09
0
-7.80497e-09
-4.57697e-09
0.000813509
-5.3027e-09
0
0.000471667
0
0
-1.84136e-08
-5.3373e-09
0.0123624
-2.1116e-09
0
-2.5019e-08
-6.14532e-06
0
9.31144e-05
-9.1244e-08
0
-5.03732e-09
-6.36901e-09
-6.63958e-06
-3.64941e-09
-8.22793e-05
-1.33339e-07
-3.01739e-09
0
-0.000115182
-6.76078e-08
-1.66729e-05
0
-3.70935e-07
-1.04515e-05
0
-2.23662e-07
0
-4.08578e-09
-2.01871e-09
-0.000321093
-8.3977e-10
-0.000264202
-1.91969e-07
-0.000125983
-1.15003e-08
0
-2.81234e-08
-2.98841e-08
2.79761e-06
-1.10908e-08
-6.42829e-05
-1.42145e-07
-1.1031e-08
0
-2.21311e-08
0
-0.000356117
-1.25048e-08
0
-0.000311393
-8.88771e-10
5.26028e-05
-1.53359e-07
0
-3.75848e-09
-6.41625e-08
0
5.85824e-07
-1.77042e-07
-1.20771e-09
-2.06446e-07
0.000150013
-1.45716e-08
-4.66737e-10
-9.55811e-09
-3.84819e-10
-1.56984e-08
8.48308e-05
0.00176181
-7.94633e-09
-5.7927e-10
-6.87882e-09
-2.20722e-08
0
-0.000213197
1.02328e-07
2.43595e-06
4.17436e-07
0.01091
0.105993
0.00197374
-9.4293e-10
-1.40279e-10
-5.01387e-08
-1.05797e-06
2.27397e-06
-4.1378e-08
0
0.00249834
-4.35766e-08
-7.59593e-09
-3.37044e-07
0
-1.34368e-05
3.0743e-05
-3.20245e-08
3.60368e-06
-9.87907e-09
-1.51957e-08
0
5.53759e-06
1.5595e-05
-1.54246e-08
-9.03984e-05
2.19618e-05
0
-0.00173821
0
-4.4903e-08
-1.06589e-06
-6.15104e-07
-0.00078642
-6.65216e-09
-4.88283e-10
-1.43251e-08
-0.000184581
-0.0011875
-1.56736e-08
-7.68737e-10
0
-5.76444e-10
-5.68325e-08
0
-1.88546e-08
-0.00241733
-3.64617e-08
-3.75609e-07
-0.000182702
-0.000128982
-2.27312e-10
-9.12233e-10
-2.22639e-10
0
-6.72247e-10
-4.98057e-08
0
0
0
-7.36773e-10
0
-1.00551e-08
0
-2.14241e-09
-1.03559e-08
0
0
-1.45532e-09
0
-5.09672e-10
-2.99293e-08
-6.65374e-10
2.71382e-07
0
-3.15891e-07
0.343124
-1.89704e-08
-6.84585e-10
-8.29201e-05
-6.27404e-08
-8.17819e-09
0.00154247
-1.85457e-07
-2.03705e-10
-2.68113e-08
-6.47138e-10
-2.22784e-08
-1.13544e-08
0
-6.96406e-09
0
-4.55134e-08
-2.10862e-09
-8.12946e-08
0
1.10408
-1.02769e-05
0
-0.000821656
0
-4.23199e-09
0
-2.50659e-09
-7.58939e-08
0
-1.55171e-09
-1.97907e-10
0
-1.30832e-07
0
-7.57034e-08
-1.16451e-07
0
-3.55547e-08
0
0
-2.68798e-07
0
0
-1.69781e-07
-7.81335e-08
0
-1.98814e-08
0
5.60314e-08
-3.69038e-05
-4.99551e-08
-2.71749e-05
-1.6736e-07
-1.13786e-05
-0.000547957
1.67994e-08
0
-1.95045e-06
-1.10679e-06
0
2.21212
-9.33139e-09
-0.00038674
-3.82178e-08
-4.75373e-07
-2.02119e-10
0
-4.32942e-06
0.00136789
-2.46505e-06
-1.68696e-08
0
-2.32945e-08
0
0
-2.26688e-08
-2.6493e-08
0
0
-1.24647e-08
0.008344
0
-2.28231e-09
-2.82664e-09
0
0
-1.41501e-09
-2.76462e-09
0
0.0216515
-7.5439e-10
0
0
-8.92408e-10
-1.7927e-06
-1.66797e-09
0
0.0147999
-4.21148e-08
-1.71357e-09
0
-1.79944e-05
2.6373e-05
-2.7171e-10
-0.000116796
-3.17662e-08
-2.39433e-09
-2.80929e-09
0
-3.78518e-07
-3.20904e-09
0
0
-2.51437e-09
0
-1.10166e-10
-1.37992e-05
0.00729081
0.000382108
0.000381312
0.000494317
-5.16309e-05
3.81764e-09
0.0262637
-2.84118e-08
0.00273212
-5.64733e-08
0.000367957