# vtk DataFile Version 2.0
Unstructured Grid by M++
ASCII
DATASET UNSTRUCTURED_GRID
POINTS 4072 float
  0.656250   0.890625 0
  0.703125   0.640625 0
  0.640625   0.890625 0
  0.703125   0.625000 0
  0.640625   0.875000 0
  0.703125   0.671875 0
  0.640625   0.921875 0
  0.718750   0.656250 0
  0.656250   0.906250 0
  0.703125   0.656250 0
  0.640625   0.906250 0
  0.546875   0.718750 0
  0.531250   0.734375 0
  0.578125   0.765625 0
  0.562500   0.765625 0
  0.812500   0.796875 0
  0.718750   0.625000 0
  0.656250   0.875000 0
  0.734375   0.609375 0
  0.671875   0.859375 0
  0.718750   0.609375 0
  0.656250   0.859375 0
  0.734375   0.593750 0
  0.671875   0.843750 0
  0.578125   0.984375 0
  0.640625   0.734375 0
  0.515625   0.734375 0
  0.531250   0.718750 0
  1.000000   0.984375 0
  0.515625   0.718750 0
  0.859375   0.921875 0
  0.921875   0.671875 0
  0.843750   0.921875 0
  0.906250   0.671875 0
  0.843750   0.937500 0
  0.906250   0.687500 0
  0.546875   0.656250 0
  0.546875   0.578125 0
  0.671875   0.625000 0
  0.609375   0.875000 0
  0.546875   0.593750 0
  0.593750   0.984375 0
  0.656250   0.734375 0
  0.578125   0.609375 0
  0.515625   0.859375 0
  0.578125   0.593750 0
  0.515625   0.843750 0
  0.937500   0.640625 0
  0.875000   0.890625 0
  0.953125   0.625000 0
  0.890625   0.875000 0
  0.781250   0.578125 0
  0.718750   0.828125 0
  0.734375   0.812500 0
  0.578125   0.578125 0
  0.515625   0.828125 0
  0.562500   0.578125 0
  0.578125   0.562500 0
  0.515625   0.812500 0
  1.000000   1.000000 0
  0.859375   0.734375 0
  0.796875   0.984375 0
  0.984375   0.734375 0
  0.921875   0.984375 0
  0.968750   0.734375 0
  0.906250   0.984375 0
  0.984375   0.718750 0
  0.921875   0.968750 0
  0.859375   0.718750 0
  0.796875   0.968750 0
  0.921875   0.796875 0
  0.984375   0.546875 0
  0.562500   0.812500 0
  0.906250   0.796875 0
  0.921875   0.781250 0
  0.671875   0.687500 0
  0.609375   0.937500 0
  0.671875   0.671875 0
  0.609375   0.921875 0
  0.687500   0.671875 0
  0.625000   0.921875 0
  0.671875   0.734375 0
  0.609375   0.984375 0
  0.687500   0.734375 0
  0.625000   0.984375 0
  0.765625   0.578125 0
  0.703125   0.828125 0
  0.781250   0.562500 0
  0.718750   0.812500 0
  0.750000   0.578125 0
  0.687500   0.828125 0
  0.765625   0.562500 0
  0.703125   0.812500 0
  0.625000   0.968750 0
  0.687500   0.718750 0
  0.625000   0.953125 0
  0.687500   0.703125 0
  0.625000   0.937500 0
  0.687500   0.687500 0
  0.609375   0.968750 0
  0.671875   0.718750 0
  0.609375   0.953125 0
  0.671875   0.703125 0
  0.609375   0.890625 0
  0.671875   0.640625 0
  0.625000   0.890625 0
  0.687500   0.640625 0
  0.609375   0.906250 0
  0.671875   0.656250 0
  0.625000   0.906250 0
  0.687500   0.656250 0
  0.593750   0.765625 0
  0.937500   0.953125 0
  0.546875   0.750000 0
  0.546875   0.734375 0
  0.531250   0.750000 0
  0.937500   0.671875 0
  0.515625   0.937500 0
  0.953125   0.671875 0
  0.890625   0.921875 0
  0.875000   0.921875 0
  0.531250   0.671875 0
  0.515625   0.687500 0
  0.921875   0.703125 0
  0.859375   0.953125 0
  0.828125   0.656250 0
  0.953125   0.656250 0
  0.531250   0.921875 0
  0.890625   0.906250 0
  0.953125   0.640625 0
  0.890625   0.890625 0
  0.937500   0.656250 0
  0.875000   0.906250 0
  0.671875   0.593750 0
  0.609375   0.843750 0
  0.656250   0.593750 0
  0.593750   0.843750 0
  0.671875   0.609375 0
  0.609375   0.859375 0
  0.656250   0.609375 0
  0.593750   0.859375 0
  0.578125   0.750000 0
  0.515625   1.000000 0
  0.921875   0.578125 0
  0.859375   0.828125 0
  0.937500   0.796875 0
  0.953125   0.781250 0
  0.953125   0.734375 0
  0.890625   0.984375 0
  0.937500   0.734375 0
  0.875000   0.984375 0
  0.953125   0.796875 0
  0.968750   0.796875 0
  0.984375   0.796875 0
  1.000000   0.796875 0
  0.562500   0.796875 0
  0.578125   0.781250 0
  0.562500   0.781250 0
  0.578125   0.640625 0
  0.515625   0.890625 0
  0.562500   0.640625 0
  0.578125   0.625000 0
  0.515625   0.875000 0
  0.875000   0.703125 0
  0.812500   0.953125 0
  0.562500   0.609375 0
  0.562500   0.593750 0
  0.546875   0.609375 0
  0.562500   0.562500 0
  0.562500   0.546875 0
  0.546875   0.562500 0
  0.750000   0.609375 0
  0.687500   0.859375 0
  0.765625   0.593750 0
  0.703125   0.843750 0
  0.750000   0.593750 0
  0.687500   0.843750 0
  0.968750   0.656250 0
  0.906250   0.906250 0
  0.984375   0.640625 0
  0.921875   0.890625 0
  0.968750   0.640625 0
  0.906250   0.890625 0
  0.984375   0.625000 0
  0.921875   0.875000 0
  0.968750   0.625000 0
  0.906250   0.875000 0
  0.531250   0.984375 0
  0.796875   0.953125 0
  0.859375   0.703125 0
  0.781250   0.953125 0
  0.843750   0.703125 0
  1.000000   0.531250 0
  0.937500   0.781250 0
  0.953125   0.765625 0
  0.937500   0.765625 0
  0.953125   0.750000 0
  0.937500   0.703125 0
  0.875000   0.953125 0
  0.953125   0.687500 0
  0.890625   0.937500 0
  0.937500   0.687500 0
  0.875000   0.937500 0
  0.828125   0.640625 0
  0.828125   0.625000 0
  0.546875   0.687500 0
  0.546875   0.671875 0
  0.531250   0.687500 0
  0.953125   0.718750 0
  0.890625   0.968750 0
  0.953125   0.703125 0
  0.890625   0.953125 0
  0.984375   1.000000 0
  0.953125   0.515625 0
  0.531250   0.781250 0
  0.890625   0.765625 0
  0.890625   0.796875 0
  0.890625   0.781250 0
  0.562500   0.671875 0
  0.921875   0.656250 0
  0.578125   0.656250 0
  0.515625   0.906250 0
  0.562500   0.656250 0
  0.890625   0.750000 0
  0.828125   1.000000 0
  0.875000   0.734375 0
  0.812500   0.984375 0
  0.953125   1.000000 0
  0.750000   0.984375 0
  0.812500   0.734375 0
  0.984375   0.781250 0
  1.000000   0.781250 0
  1.000000   0.765625 0
  0.937500   0.718750 0
  0.875000   0.968750 0
  0.921875   0.718750 0
  0.859375   0.968750 0
  0.968750   0.531250 0
  0.546875   0.796875 0
  0.906250   0.781250 0
  0.984375   0.515625 0
  0.921875   0.765625 0
  0.906250   0.765625 0
  0.968750   0.781250 0
  0.984375   0.765625 0
  0.968750   0.765625 0
  0.984375   0.750000 0
  0.906250   1.000000 0
  0.968750   0.750000 0
  0.968750   0.718750 0
  0.906250   0.968750 0
  0.984375   0.703125 0
  0.921875   0.953125 0
  0.968750   0.703125 0
  0.906250   0.953125 0
  0.984375   0.687500 0
  0.562500   0.953125 0
  0.921875   0.937500 0
  0.968750   0.687500 0
  0.906250   0.937500 0
  1.000000   0.859375 0
  0.734375   0.531250 0
  0.671875   0.781250 0
  0.734375   0.546875 0
  0.671875   0.796875 0
  0.718750   0.546875 0
  0.656250   0.796875 0
  0.687500   0.921875 0
  0.750000   0.671875 0
  0.828125   0.812500 0
  0.828125   0.796875 0
  0.578125   0.812500 0
  0.578125   0.796875 0
  0.937500   0.859375 0
  0.703125   0.796875 0
  0.765625   0.546875 0
  0.718750   0.781250 0
  0.781250   0.531250 0
  0.687500   0.796875 0
  0.750000   0.546875 0
  0.703125   0.781250 0
  0.765625   0.531250 0
  0.609375   0.765625 0
  0.984375   0.828125 0
  1.000000   0.812500 0
  0.984375   0.812500 0
  1.000000   0.750000 0
  0.937500   1.000000 0
  0.953125   0.984375 0
  0.937500   0.984375 0
  0.609375   0.781250 0
  0.593750   0.781250 0
  0.593750   0.796875 0
  0.531250   0.609375 0
  0.515625   0.609375 0
  0.515625   0.562500 0
  0.875000   0.796875 0
  0.859375   0.812500 0
  0.609375   0.812500 0
  0.609375   0.796875 0
  0.593750   0.812500 0
  0.578125   0.671875 0
  0.515625   0.921875 0
  0.859375   1.000000 0
  0.921875   0.750000 0
  0.875000   1.000000 0
  0.937500   0.750000 0
  0.921875   0.734375 0
  0.859375   0.984375 0
  0.937500   0.921875 0
  0.593750   0.671875 0
  0.625000   0.609375 0
  0.562500   0.859375 0
  0.609375   0.609375 0
  0.546875   0.859375 0
  0.609375   0.671875 0
  0.546875   0.921875 0
  0.640625   0.671875 0
  0.578125   0.921875 0
  0.625000   0.671875 0
  0.562500   0.921875 0
  0.640625   0.625000 0
  0.578125   0.875000 0
  0.500000   0.906250 0
  0.078125   0.125000 0
  0.500000   0.796875 0
  0.078125   0.015625 0
  0.484375   0.843750 0
  0.468750   0.828125 0
  0.750000   0.234375 0
  0.062500   0.828125 0
  0.484375   0.562500 0
  0.296875   0.546875 0
  0.234375   0.796875 0
  0.281250   0.531250 0
  0.218750   0.781250 0
  0.296875   0.562500 0
  0.234375   0.812500 0
  0.281250   0.546875 0
  0.218750   0.796875 0
  0.265625   0.625000 0
  0.953125   0.046875 0
  0.281250   0.640625 0
  0.031250   0.546875 0
  0.500000   0.984375 0
  0.078125   0.203125 0
  0.484375   0.984375 0
  0.062500   0.203125 0
  0.718750   0.125000 0
  0.031250   0.687500 0
  0.703125   0.109375 0
  0.328125   0.625000 0
  0.343750   0.812500 0
  0.406250   0.562500 0
  0.687500   0.031250 0
  0.500000   0.859375 0
  0.468750   0.906250 0
  0.046875   0.125000 0
  0.468750   0.937500 0
  0.046875   0.156250 0
  0.062500   1.000000 0
  0.015625   0.546875 0
  0.812500   0.109375 0
  0.375000   0.812500 0
  0.437500   0.562500 0
  0.359375   0.796875 0
  0.421875   0.546875 0
  0.343750   0.781250 0
  0.406250   0.531250 0
  0.328125   0.687500 0
  0.500000   0.968750 0
  0.078125   0.187500 0
  0.031250   0.609375 0
  0.718750   0.031250 0
  0.031250   0.593750 0
  0.718750   0.015625 0
  0.703125   0.015625 0
  0.031250   0.515625 0
  0.046875   0.531250 0
  0.359375   0.687500 0
  0.375000   0.703125 0
  0.484375   0.750000 0
  0.046875   0.984375 0
  0.328125   0.656250 0
  0.343750   0.593750 0
  0.328125   0.578125 0
  0.265625   0.828125 0
  0.000000   0.515625 0
  0.500000   0.765625 0
  0.015625   0.531250 0
  0.468750   0.984375 0
  0.046875   0.203125 0
  0.375000   0.625000 0
  0.343750   0.703125 0
  0.468750   0.968750 0
  0.046875   0.187500 0
  0.359375   0.625000 0
  0.296875   0.875000 0
  0.734375   0.390625 0
  0.359375   0.718750 0
  0.015625   0.593750 0
  0.812500   0.156250 0
  0.750000   0.406250 0
  0.375000   0.734375 0
  0.453125   0.750000 0
  0.468750   0.875000 0
  0.046875   0.093750 0
  0.296875   0.812500 0
  0.484375   0.968750 0
  0.062500   0.187500 0
  0.296875   0.781250 0
  0.031250   0.968750 0
[...]
POINT_DATA 4072
SCALARS scalar_value float 1
LOOKUP_TABLE default
-1.30232e-07
-0.0002374
-3.22487e-07
-0.000370292
-4.82174e-07
-9.76945e-05
-1.32945e-07
-5.38378e-05
-7.08726e-08
-0.000152406
-2.10826e-07
0.000164595
-0.000221232
0.000180861
0.000233636
-6.74091e-07
-0.000135635
-2.37746e-07
0.000218308
2.60726e-07
-0.000236638
-4.28792e-07
0.000284637
3.59569e-07
1.22303e-08
7.20338e-06
-0.000261087
-0.000253298
0
-0.00034381
-2.64628e-10
6.94592e-09
1.69969e-10
-3.66535e-08
1.46013e-10
-2.76845e-08
-0.00073038
-0.00781633
0.000375264
6.7449e-07
-0.00630263
-6.41262e-08
-5.02259e-05
0.028201
-3.5666e-06
0.0376485
-5.32043e-06
2.22849e-09
0
-1.45871e-09
2.26822e-10
5.42523e-05
-2.95284e-07
4.62854e-07
0.0482481
-9.63559e-06
0.0120984
0.0601174
-1.95902e-05
0
-2.9275e-09
-1.07109e-10
1.30607e-09
0
-3.74017e-10
0
1.83983e-09
0
1.12888e-08
-4.56873e-10
1.46133e-10
4.41109e-08
3.30678e-05
-2.64004e-09
5.80231e-10
1.68747e-05
2.26754e-07
4.64548e-05
3.28104e-07
0.000111955
8.67043e-08
-2.73143e-06
3.21737e-08
2.98232e-05
2.09912e-09
-0.000283415
-7.16237e-07
6.25486e-05
-5.84362e-07
0.000106961
1.28351e-06
-0.000356907
-1.19237e-06
7.77945e-09
4.34709e-05
2.00325e-08
6.09411e-05
4.38242e-08
8.31989e-05
7.90576e-08
-2.88327e-06
1.43414e-07
2.31547e-06
5.61838e-07
0.000196584
2.73518e-07
0.000209908
4.42759e-07
0.000100378
1.59054e-07
0.000151255
6.97888e-05
0
4.79299e-05
0.000113007
-0.000200606
5.05792e-10
-9.09673e-07
-6.05865e-10
0
0
-0.000551483
-0.00056021
4.67848e-09
-1.21207e-10
-3.49853e-07
-8.71703e-10
-4.31143e-07
0
-1.17852e-09
0
1.20374e-09
0
0.00170453
8.9413e-07
0.000799298
-4.69108e-06
0.000744973
7.76521e-07
0.000127127
-3.68819e-06
0.000438201
0
-3.51223e-08
-1.77223e-09
0
0
-1.14549e-10
0
-2.67041e-10
0
0
-1.01935e-10
4.00425e-10
-5.06643e-10
5.38802e-05
8.13292e-05
0.000100122
0.0131753
-2.20648e-06
-8.37144e-05
0.0199867
-2.75103e-06
2.25414e-08
-1.40816e-09
0.00287569
0.00680579
-0.00462885
0.0182203
0.024679
-0.00918212
5.56495e-05
4.094e-07
-0.000220876
-4.48617e-07
7.83697e-05
7.2205e-07
-2.66512e-09
0
8.98504e-09
0
-3.6718e-09
0
1.19964e-08
0
-5.03193e-09
0
7.19029e-08
-1.99731e-09
3.19311e-08
-1.39433e-09
1.80427e-07
-5.98595e-08
0
0
-1.10564e-10
0
-1.68601e-10
0
-4.01855e-10
0
0
0
-8.60047e-07
-1.65755e-06
0.000202739
-0.000196408
-0.000400981
-1.66805e-10
0
-2.58631e-10
0
0
-7.41398e-09
-0.000132917
-2.44417e-09
0
-7.65271e-10
0.00139222
7.89519e-09
0.00785872
-1.73088e-06
0.000429429
-5.05816e-09
0
4.42199e-09
0
0
1.22758e-10
-3.06346e-06
5.07065e-10
-6.52434e-10
-8.64976e-10
-2.67032e-10
0
3.63282e-09
0
-3.42138e-08
-6.65441e-05
-4.12328e-09
6.56793e-08
1.17935e-09
-5.96295e-09
-1.09433e-10
6.73981e-10
-1.46351e-10
9.29762e-10
0
-2.29745e-10
-5.93736e-10
0
2.57674e-09
0
-9.06365e-10
0
3.575e-09
7.13288e-07
0
-1.33419e-09
0
-2.12267e-10
0.000357236
7.33067e-07
0.000380908
7.48719e-07
-0.00182283
-4.54056e-06
5.33773e-08
1.86536e-05
9.03206e-08
1.44315e-07
2.52526e-05
4.35698e-05
0
-2.02669e-06
-0.000443042
-1.91196e-06
7.5655e-05
4.03983e-06
0.00013952
-3.44507e-06
-0.000545762
8.28556e-05
2.71944e-10
-4.0381e-10
3.28717e-10
-1.17264e-09
0
0
0
1.56411e-05
1.10537e-05
-2.32095e-06
-0.00199421
-0.000945601
0.00119296
-3.20669e-10
-2.9089e-09
1.94285e-06
4.70055e-06
-5.38998e-06
0.00410269
-1.29437e-06
0
1.88768e-09
0
-2.03439e-10
2.70236e-09
0
0
0.00986458
0.000795747
9.99093e-06
0.00317586
-1.48664e-05
0.00122788
-2.54191e-06
-1.95713e-05
5.17767e-07
0.000406175
1.96638e-06
-0.000111252
3.139e-06
7.0902e-06
-0.000104848
8.29163e-05
5.76751e-05
1.1453e-06
-7.79358e-05
-0.0303083
-4.12882e-10
-0.00981134
0.00843529
-2.43922e-07
0.0271265
2.38866e-07
0.0151281
-1.21934e-07
0.0203495
2.70501e-07
0.000931288
2.18755e-05
0.000342298
-2.33143e-07
1.98375e-07
-6.31588e-05
1.66308e-07
-3.57579e-05
3.30308
-3.90688e-08
7.16839
0.000602234
-1.07398e-05
0.0588366
9.93451
2.65653e-05
-6.64275e-06
2.52011e-06
-2.05467e-06
-5.38442e-06
0
-5.47673e-08
0.0149567
8.33983e-05
0.0459564
1.04827e-06
0.10854
-2.19632e-05
0.139972
-5.02513e-05
5.71827e-07
-7.8214e-05
-1.66291e-07
5.6557
-1.97242e-07
5.96197
7.96717
-1.7924e-07
1.23525e-06
-0.000228975
3.72471e-05
8.53853e-05
0
-2.52689e-05
-0.00071649
0.00189382
-1.43951e-07
1.42322e-07
0.000112025
-8.06475e-08
-1.67318e-07
7.13134e-06
-0.000626159
-0.000113492
-4.85888e-07
-3.13901e-06
-0.00150203
7.9801e-08
0.00237469
-6.60883e-05
3.332e-09
0.0203834
-0.00536133
0.000103767
-4.34572e-05
-1.95839e-05
1.04249e-05
1.77207e-06
4.31133e-07
-7.36749e-05
4.65015e-06
0
4.67826e-06
2.13295e-06
-0.00113282
7.7443
7.71496
1.20466e-05
-1.25942e-05
2.16731e-06
-6.9064e-05
9.7509e-07
4.16441e-06
-1.3767e-06
-0.00489034
0.0051813
7.23472e-08
2.93045e-06
4.08306e-06
-1.86328e-05
2.96162e-06
-0.0122511
-3.27369e-05
-0.00150869
-2.51896e-07
3.28771e-06
5.41293e-07
-0.00263516
-0.0143883
-3.62701e-07
7.39402e-06
-2.81551e-06
-0.000185647
8.29849e-07
-7.31508e-05
4.01304e-06
0.0243733
-0.00218558
1.08044e-06
1.28791e-05
-0.00568798
-2.07172e-07
8.39183e-05
-8.19891e-06
7.1334e-06
0.00020748
6.02201e-05
2.35481e-06
-0.000109054
7.95063e-08
5.87371e-09
1.08241e-05
-5.0763e-07
1.78577e-05
9.3581e-07
-6.08357e-05
-7.90428e-06
7.00828e-06
1.79098e-05
-1.35669e-06
-0.0234894
2.65675e-05
8.62459e-06
9.92296
5.43678
0.000715108
-0.000193991
3.09685e-07
-1.49901e-07
0
2.25791e-07
-0.000512028
0
-3.03985e-07
-0.00133374
1.25376e-07
2.80712
0.17528
0.592344
6.40557e-06
-2.63854e-05
0
-0.00279382
2.2198e-05
0.0446045
-0.0791753
-0.112838
1.08895e-06
-2.15797e-06
-8.55511e-07
9.25726e-06
8.38468
0.0137215
5.62872e-08
10.1727
5.04436e-05
5.93604e-05
-0.000119738
1.54823e-05
-2.86243e-10
-6.10374e-06
-1.41186e-05
0.0145257
-0.0108352
7.8082e-05
-0.0378798
0.000132232
3.82665e-07
3.41631
0.768546
0.995761
-0.0206694
0.00012954
0.144743
-0.00578821
-1.21262e-09
-0.000234316
0.000954045
-0.000654319
-0.000451197
-0.000193247
3.84753e-07
0.000476366
-0.00172398
-0.0835614
-0.0375114
1.5494e-05
-8.45e-07
1.07389e-06
0.0246259
0.000229685
-1.2209e-07
-0.000503888
0.000453208
12.253
4.80338
0.00223372
5.2379e-07
-3.32698e-07
1.08578
-1.53056e-07
1.33831e-06
0.0212127
5.46261e-06
7.702e-06
-2.30351e-06
1.38249e-06
8.59727e-06
-1.51352e-06
9.47215e-06
-2.22424e-07
1.25166e-06
2.4812e-06
6.93603e-07
3.78895
-0.00433286
-2.5144e-06
8.83456e-07
2.99166
0.00474064
-1.07133e-06
-6.2499e-07
-1.65638e-06
-7.03132e-06
-5.70404e-06
-6.20461e-06
5.93536e-05
3.30971e-06
-1.43282e-05
-6.12166e-05
-2.66937e-07
-1.52384e-06
1.09573e-05
0.00117021
-3.01121e-07
3.19385e-07
0.00459363
3.52891e-08
-0.000761638
0.000191311
0.0015422
-0.000252394
-0.0117594
2.95001e-10
2.40434e-05
6.70024e-10
1.79696e-10
6.77425e-10
1.30037e-10
0
1.52814e-05
1.14361e-07
-3.40922e-09
0.555628
4.09649
-1.45985e-09
1.04932e-09
0.527242
-5.45848e-05
-3.1958e-05
-5.51224e-10
0
3.12595e-08
0.232429
0.800266
-0.000265386
-0.00051636
6.99202e-08
-3.91756e-08
1.29422
0.0159764
0.000348393
3.81058e-06
0.428159
-1.32602e-07
-0.00182872
-9.86962e-07
-0.0809051
-0.195914
-5.62269e-10
-2.06753e-06
-1.96124e-06
9.3326e-05
0.000332361
1.22068e-06
3.06824e-10
-0.0395307
0.000149955
0
-0.150053
0.000304295
0.000135222
0.000257403
0.512269
6.29484e-06
0.000161129
-0.0080834
-3.8581e-05
-9.76491e-05
-4.96464e-05
1.92925e-05
-4.17313e-05
2.39611e-08
0.0135581
-5.67051e-06
5.19403e-05
-3.30713e-06
3.57894e-05
-1.19577e-07
0.00948814
0.00108048
-7.47543e-07
-5.18556e-07
8.78047e-05
0.015941
0
6.91808e-06
7.52996e-07
-3.57175e-06
8.7022e-06
0
3.96884e-05
-8.23904e-08
0.00142552
0
1.21384e-06
5.55538e-06
0
6.65539
0.00319486
0.00207978
0.000309141
1.45711
-2.20989e-09
-0.00106788
-1.73433e-06
0.0014109
1.37374e-08
0.00527663
0.00393142
0
-0.000862328
-9.48137e-10
0.00127075
-0.00293374
0.347715
0.354251
-1.03426e-07
-0.000327593
-3.34102e-05
0.464505
9.31768
3.9062e-08
0.531477
2.16956e-08
-1.36367e-07
-5.6329e-06
9.73718
-7.00744e-07
0.339055
-0.000552075
0.00010335
0.615809
0.0790176
10.1212
2.93944e-07
0.724863
1.73845e-08
10.4774
0.637475
4.94606
0
0.059563
4.1724
-1.60055e-06
9.05753e-06
0.525238
0
4.98974
-1.86989e-10
0.366673
0.00186368
6.08306
0
4.59303e-06
-2.71731e-06
0.00726004
0.000293103
8.78181e-07
8.87866e-06
-2.83885e-06
-2.30967e-06
1.808e-06
1.32139e-06
2.79691e-07
0.0214003
-7.5966e-06
-8.72129e-09
-4.8003e-08
-2.35761e-05
-0.00041608
-4.82791e-05
7.27024e-06
0.977908
-0.00132762
-5.42685e-05
6.065e-06
-0.00133516
-3.25637e-05
-1.62101e-06
-0.000100641
1.16042e-08
1.20244e-05
-0.0977132
-0.00465674
1.14839e-06
1.51037e-08
11.8698
-9.20898e-10
3.0228
11.4635
6.5752e-05
5.89975e-05
2.76031
13.7094
7.86691
-0.0610988
9.35189
4.43097e-10
-1.85111e-07
-0.026839
-0.000349875
11.2597
-3.34176e-10
-0.0213918
11.8916
0.0404463
12.8083
-1.20182e-08
0.0843079
-9.50381e-09
-1.03353e-08
-1.8838e-06
13.0571
-1.57222e-08
-8.55159e-08
-0.00381054
-0.000448861
0.931964
1.41037e-07
-0.00818473
2.73672
-2.01423e-07
-0.00714253
-1.35476e-08
-7.16869e-10
9.03689e-10
-0.000357419
1.03793
-1.52179e-08
-0.000187337
-0.000169165
0.49917
2.01259e-08
0.000254972
0.048262
1.55716e-08
2.72576e-06
-2.11928e-05
9.59746
-8.24689e-10
0.447787
3.88522
2.8997e-06
-2.50575e-06
7.89577
-2.18658e-05
0.00110053
6.8047e-06
1.05429e-06
-5.30076e-09
-2.62242e-05
-0.000125606
0.00193323
1.51485e-06
-1.03159e-10
-1.64899e-08
0.000761548
-1.66546e-06
1.05837e-06
-1.73515e-05
-0.000573801
-9.71223e-06
-0.0608131
0
8.98799
5.7006e-10
-0.0533906
8.64503
0
-4.56221e-07
-0.00968141
-0.000909083
12.3222
-6.74904e-09
0.0101014
-1.76981e-09
12.5885
-9.0143e-09
0.144513
13.3487
-1.99425e-08
0.22297
-2.41654e-08
-1.26357e-08
-2.77425e-06
13.6677
-0.0149259
1.13628
-2.07065e-07
1.8739e-06
-4.23047e-07
-0.0275078
-0.00127184
1.22181
-0.000467048
3.26692e-08
0
0.0738183
4.99708e-08
-0.00213531
-5.48713e-09
-1.37091e-10
0.822834
0.00214768
-0.106768
8.65149
-1.00861e-10
0.434443
0.0112729
-5.56914e-07
9.06485e-07
5.59049e-05
0.0116142
-8.89438e-07
4.90915e-05
-3.49474e-06
1.48563e-05
-5.27625e-05
7.23556
2.49484e-07
-0.00183597
5.34322
-1.28645e-07
1.28921
-0.00636149
1.33382
2.28283e-06
-3.6079e-05
0.010873
1.20573e-09
5.8485e-06
0.0102851
-1.66994e-07
0.633241
0.709863
1.80274e-06
0.87635
-1.22634e-06
0.937
1.85106e-06
2.39108
0.953891
2.37802
-1.0407e-07
0
8.40437e-10
0.000462503
-0.252483
-2.12854e-08
0.00117477
7.12623e-05
-0.239261
-1.16449e-08
8.54266e-09
0.000951684
-2.76567e-06
1.27156e-05
-1.26966e-06
1.6626e-06
9.22583e-06
0.0734516
7.80457
0.0987386
9.67396
3.57783e-10
6.48648e-05
0.0112212
9.68603e-05
-0.026974
0.0155288
7.44646e-09
5.45877e-05
-0.000343276
0.0112932
6.39301e-05
0.00853517
5.37521e-06
2.12827
3.0449
-1.29589e-07
5.44426e-05
-0.00131347
-8.72589e-05
3.85566e-09
8.79232e-06
1.73921e-05
-0.000723356
-8.27516e-05
-6.59228e-08
-2.79083e-06
4.12211e-05
-3.97855e-05
-5.10455e-07
1.92203
-0.00129545
1.05469e-05
-9.66628e-05
1.59708e-05
4.69517
10.8237
9.26605e-10
-1.93031e-06
-1.37791e-05
8.36171
13.8608
-1.14395e-09
5.58463
11.1833
1.23086e-09
1.57932e-05
0.00182501
-0.158321
-4.42136e-08
-2.75373e-08
5.52409e-06
5.8058
-0.00765296
3.52526
-0.0287329
3.28309
-6.6247e-08
10.8262
-7.63016e-09
1.98883
1.25826
2.25293
1.64707
-1.60333e-07
-0.0513686
3.94667e-05
9.17102
0
-2.76975e-06
0.0576277
0.00012117
3.83045
0.687005
2.61642
-0.0514192
9.45476
-9.8002e-07
-1.30617e-06
-2.78257e-05
0.0118548
1.361e-06
-1.39315e-05
-3.89399e-06
-1.4206e-06
-4.43773e-07
-0.0226811
0
-0.0410915
1.16677
1.53206
1.50951
0.836346
1.9173
0
1.2573
1.37533e-06
1.91317
1.66417
0
9.67416
7.86498
8.46394
8.74977e-07
0.00371474
6.24188
1.31782e-09
-7.70046e-06
0.000393746
2.14921e-06
-0.000999055
-0.00968822
-0.049841
9.63394
0.131288
4.40419
0
6.16018e-07
-2.07145e-06
0.128315
0.000211543
4.68639
0
-0.0555181
9.59633
2.21605e-10
1.52943e-06
-1.95837e-06
0.00581831
1.61214e-06
0.000467969
0.0149768
1.05215e-07
9.3869e-05
5.53568
0.17516
2.64614
0.107402
-0.000278196
0.00286786
0
0.0306187
0.000585026
1.16437
-0.000134291
0
-0.00137391
0.00273681
2.66313e-08
0.00630904
-0.000236658
4.6491
0
0.0136621
7.33638e-05
3.29713
-8.69264e-09
-2.74817e-07
0.125655
-0.000673751
0.00465394
0.0559384
2.33095
0
-0.020894
12.0706
0.397072
2.00496
7.19845e-06
-1.14962e-05
-5.80557e-05
0.0109217
-1.40156e-08
6.95429e-05
4.35107
-2.59172e-08
0.0253208
2.11524
0
0.00403603
-0.00305023
-0.00736462
4.43189e-07
0.00123099
-0.000968618
7.0319
1.36825e-07
0.0193625
0.00104072
-0.00196813
8.13304e-08
0.000386726
-0.0123517
6.78501e-07
1.83199e-07
0.00223563
3.61331
0.00509116
8.26285
0.0350057
-0.00520122
-0.312736
0.00294675
-0.303398
1.34755e-08
0.000323357
0.00297758
-0.00587036
-0.0160211
0.0596825
9.41082
-3.45268e-09
1.22691e-07
-2.85232e-06
1.56356e-06
1.42549e-08
-2.33567e-06
1.166e-07
4.03774
-0.229467
0.000128378
-0.18257
9.01836
6.64104
-1.08041e-06
5.1298e-06
0.355705
-0.0013362
-1.89548e-05
-6.26234e-07
8.17607
0
0.2536
11.5008
1.94474
0.533985
2.8587e-06
10.7355
1.68343
7.78006e-07
-1.06336e-05
9.57154e-07
-1.06963e-05
-1.17596e-05
4.06785e-06
-1.31859e-05
5.71806e-05
3.74963e-05
-6.53907e-07
2.49818
1.3114e-07
11.256
-5.73157e-06
0
6.2851e-07
0.00300492
5.09265e-07
-6.56721e-05
3.11023e-06
6.00608e-09
6.29486
-7.57959e-08
0.178056
-0.0997323
0.292408
2.01858e-09
-2.34532e-08
3.99458e-06
12.2603
-5.03222e-09
8.83951
-3.92228e-08
0.404954
3.30999e-08
-0.0975538
-0.0825762
0.38748
12.5656
4.92951e-08
6.05112e-07
0.0957469
-0.0043047
10.3994
0.0105298
5.80415
5.04775
-3.61444e-08
0.0287037
7.27943
1.11949e-07
-0.0169691
9.17153
0.182662
0.0735368
8.47874
-6.40405e-07
-7.2633e-06
0.156665
0.152294
7.76686
-2.88928e-07
4.17109e-07
1.17225e-06
4.97961e-08
-0.000889548
0.101278
9.05265
0.321965
5.03817e-06
-1.34467e-05
1.65623e-06
-0.00481478
0.722437
0.0428063
-0.0563868
12.8526
1.88256e-07
-0.0460126
-2.59906e-08
0.000985313
0.0437373
10.0222
0.697922
-0.0293204
1.34285
7.05374e-06
-4.40509e-07
-0.0791026
-2.84167e-07
-0.0417055
-0.00111105
0.079846
1.8346e-08
-0.00081198
1.35222
-2.10494e-06
-0.0373741
0.105008
6.22112e-07
2.57353
-2.27335e-09
0.00818751
10.0485
0
1.46103
0.505265
9.25866
8.60608
0
0.359604
0.409867
8.89216
0
0.230597
8.09885
-0.000365025
-1.38846e-06
0.392496
1.11632e-08
-8.06326e-07
7.00129e-06
-2.91867e-05
-1.93967e-07
0.00793406
2.22316e-09
0.000289375
-1.95324e-05
-0.0849095
0
0.1238
-0.0300282
5.18754
0.0194247
-0.000177816
-1.66274e-06
0.174275
0
-3.88454e-07
7.76078e-05
-0.00114139
-9.88591e-07
1.36955e-06
-0.00111951
-5.38517e-10
-3.87104e-06
-4.11205e-07
9.48547e-06
0.793126
3.88839e-05
0.00346199
0.000904365
-0.000727181
-1.55986e-06
-4.45974e-06
-1.13868e-09
-3.48073e-06
-1.35487e-05
-0.00115859
1.22212e-06
0.000153031
4.25097e-07
9.84392e-08
-0.0148746
0.599065
-0.0284608
4.86483
-3.48855e-08
-0.00322733
3.01747
-2.95342e-07
4.83854e-07
-0.0162773
0.0031012
5.937
8.04608e-08
-4.55939e-07
-0.0266495
2.68178e-05
3.51112
-0.00270594
0.00121923
1.72708
-0.0150603
-1.27613e-07
6.83111e-05
0.000199872
0.00959053
9.04003e-06
-0.000382451
1.40364
0
0.276766
-0.000163114
2.99964
4.96925e-09
4.36064e-08
-0.00277789
-1.6373e-06
0.0262733
0.0242245
5.77575
-4.76385e-08
0.0135448
0
2.12895e-05
3.10286
-0.000604844
0
-0.0062963
-4.70759e-06
-4.4408e-08
0.00738537
-0.208726
-1.07978e-06
-0.025497
9.53493
0.00753885
-2.74067e-09
0.00242161
-0.203894
0.00792372
-0.204538
-5.10791e-06
-0.197062
-9.65189e-06
0.00870712
3.55461
-0.00414889
12.8464
13.8459
-4.16217e-08
-4.3812e-10
-4.94007e-10
-0.000100462
2.44892
-0.00474116
-2.27368e-10
-0.000181487
2.53691e-05
-3.42564e-06
0.00554317
3.63252e-08
4.91317e-05
9.94668e-05
5.63238e-05
3.28653
12.3766
-0.0010931
6.52323
-4.06904e-09
0.0124311
5.70272e-06
-0.207519
0.120935
6.99331
9.58191e-09
7.50844e-05
0.00177909
0.0140607
-5.49473e-06
0.144713
4.01464
0.0763698
1.61687
-1.61735e-10
-0.0880193
0.00491887
-0.359363
-8.76473e-06
5.99825e-07
-0.0045371
0.00253538
-4.72206e-05
-1.22769e-07
5.29229
3.65884e-08
-0.00936051
-0.000743623
1.34628
-2.19725e-08
10.7963
6.91337e-07
-0.00043013
0.866736
2.54237e-06
-0.000416618
-9.08563e-07
-1.85238e-10
-4.80975e-06
-0.0881645
0
2.33207e-06
-0.000230345
8.54629
0
-0.0210456
0.0346255
-0.0107298
7.98352e-06
1.26416e-07
0.00317605
12.2355
-1.17567e-09
-0.0137906
7.53538
0.015869
1.62757e-06
-0.000143755
-2.42263e-06
4.94069e-07
-2.69847e-05
-1.40626e-07
0
0
-4.8573e-07
9.11638e-07
2.03348e-05
0
8.20945
1.55694
3.6073e-05
2.30157e-05
-0.211803
-2.35842e-09
0.918005
-0.00102784
4.38132
1.0002e-08
6.25987e-07
-0.0132521
4.64039e-06
2.58274
1.02461e-08
-0.00260295
-1.08053e-09
11.1969
0.145596
-0.00975334
-0.0174338
0.00364543
-1.7082e-06
0.000342569
2.53613
-1.05662e-06
-0.0887934
0.0187571
1.39937e-06
8.34233e-05
0.30638
0.116974
0.211066
11.8102
0.00359452
-0.0149836
3.03623e-06
1.30617e-05
-0.000149224
1.44281e-05
6.53858
11.7073
0
-1.15014e-06
2.61227e-06
-9.78107e-05
1.21518e-07
-0.092018
-6.55543e-07
0.00110463
0
-4.25551e-09
0
1.27048
-0.0017866
-0.00137139
3.34724e-06
0.168097
7.03908
-7.59845e-08
3.6402e-08
0.00647878
-0.196706
-4.807e-07
0.0863882
8.77422
6.72511e-07
-1.64905e-05
-0.0362779
-1.93921e-05
-4.48093e-07
-0.00537153
-0.00767136
3.9029
1.99334e-08
2.06337e-06
12.2817
6.49207e-10
-0.000654306
0.0424389
0.00526971
5.29566e-09
5.52432
0.726212
0.019609
3.6986
-1.81225e-08
8.80127
13.9236
1.85382e-05
1.44808e-07
-0.0481244
1.08969e-06
1.74073e-06
-0.000594539
-1.88448e-07
-0.0275273
10.4567
0.175897
5.93636
-0.0558533
-2.55677e-07
-1.72979e-05
0
0.000153947
0
1.49194e-06
-0.0375128
-6.21942e-05
-3.33979e-07
0.0272869
-3.60074e-07
9.83446
-1.96551e-06
0.235233
-0.150257
9.48649
-0.0340165
5.67334e-09
10.449
0.324811
-0.00017839
10.1531
1.90989e-06
-0.0101958
1.93311e-08
5.76321e-05
1.33722e-05
-0.00149873
-1.26973e-06
4.66253e-10
2.95847e-06
-7.77685e-05
0.28421
4.76549e-09
-4.89896e-09
1.27723e-05
-0.000521809
1.08638e-09
-1.18987e-06
3.81756e-06
-0.00133673
-5.72846e-06
0.135585
-2.516e-05
-0.0283437
0
-0.116133
-1.90279e-06
0
-1.4568e-07
9.49315e-06
-4.87975e-06
8.53587e-06
0.287237
6.23777
3.73606
7.77228
1.57536
6.12834
4.39518
13.1716
7.33043
-3.86711e-08
8.16047
4.99294
0.0256209
-2.00059e-07
5.29027e-06
4.52416
-3.75813e-06
-2.95851e-06
1.081
-5.59029e-09
6.06109
1.2591
0
-0.0161105
-1.28269e-07
-1.42451e-07
-5.08226e-05
1.17537e-05
6.76483
-0.198227
2.15285
1.57721e-05
-5.82989e-07
0
-0.00280528
4.06921
1.26468e-08
-5.52269e-05
0
-3.90157e-05
0.217477
0.00288759
-0.075989
1.63596e-07
1.409e-06
5.8767e-07
0.113905
0.524187
1.38023e-05
-0.201052
0
3.16392
1.03485e-05
-0.163926
-2.37704e-06
-0.000933827
-6.28694e-06
-0.00262941
2.54023
5.85719e-09
6.08103e-08
-0.00411804
0.000202284
4.66612
2.18567e-08
-4.38751e-08
-4.32555e-05
-0.000203963
0.0027903
4.97807e-08
-0.00184048
1.38191e-05
2.20127
6.04866e-09
-1.02976e-06
-0.000375684
-0.00258427
-0.000688021
0.00377088
4.7697
0.162441
-0.0257112
0.0144935
8.41458e-05
0.252765
5.42894e-09
8.00609
0.000904078
1.24336
0
-1.35761e-08
0.0636869
0.0119864
-1.34994e-06
9.10152e-05
0.0699236
0.0103819
1.50711e-05
7.03262e-05
5.58872
3.62131
0.752859
0.250759
-1.63523e-07
1.00346e-06
-1.50529e-06
14.3182
-1.04731e-06
0.91504
-0.000704442
0.0414264
1.67748
0
0.134219
4.98122
-4.58056e-09
-0.000755378
0.00415714
0
-1.18213e-09
0.00151664
-0.170447
0.00306141
0.0102266
11.0064
3.06663e-09
0.508685
0.283497
2.68608e-09
7.6074
-0.000626751
0.00388359
11.4893
-1.29918e-08
-1.71303e-06
2.72309
0.00563387
8.27623
-2.40262e-08
0.344482
0.00464214
-0.000644816
-0.00597518
-4.22297e-06
9.89161e-07
2.19208e-06
1.19016e-06
11.56
2.64378e-08
0.02254
0.78124
-0.0651516
2.11741e-07
1.57866e-06
-8.36173e-07
12.5859
0.542422
2.13581
3.44169e-09
-0.00218838
0.746683
8.03373
3.32011e-07
-0.0296732
5.86656
0
0.63253
1.10629
10.3341
2.94939e-07
1.4e-06
-7.16367e-05
3.21431
3.4987
-2.79768e-06
2.71266e-05
1.78859e-05
-2.82406e-07
1.98839
8.32454e-06
0.00421334
4.01786e-09
-0.000143825
-0.178925
0.0039549
0.00194736
0
-0.275474
6.58875
1.42192e-07
-0.0677473
4.62213
4.18984e-06
1.32976
1.27222e-08
1.75654
1.33031
3.67689
-0.000804456
0.00483335
0.000109169
-0.163417
-7.96472e-08
0.00235754
2.96517
1.32258
6.82413
0.226148
3.12038
0.0753455
0.00363179
-0.000641441
2.93355
1.06712
-7.70425e-06