# vtk DataFile Version 2.0
Unstructured Grid by M++
ASCII
DATASET UNSTRUCTURED_GRID
POINTS 4225 float
  0.859375   0.484375 0
  0.062500   0.921875 0
  0.718750   0.906250 0
  0.921875   0.140625 0
  0.859375   0.390625 0
  0.843750   0.453125 0
  0.046875   0.890625 0
  0.859375   0.468750 0
  0.062500   0.906250 0
  0.859375   0.437500 0
  0.062500   0.875000 0
  0.859375   0.453125 0
  0.062500   0.890625 0
  0.906250   0.234375 0
  0.109375   0.671875 0
  0.890625   0.218750 0
  0.093750   0.656250 0
  0.843750   0.484375 0
  0.046875   0.921875 0
  0.843750   0.468750 0
  0.046875   0.906250 0
  0.828125   0.468750 0
  0.031250   0.906250 0
  0.828125   0.484375 0
  0.031250   0.921875 0
  0.906250   0.187500 0
  0.906250   0.156250 0
  0.890625   0.171875 0
  0.843750   0.437500 0
  0.843750   0.406250 0
  0.828125   0.437500 0
  0.031250   0.875000 0
  0.828125   0.421875 0
  0.343750   0.171875 0
  0.328125   0.156250 0
  0.046875   0.953125 0
  0.109375   0.703125 0
  0.171875   0.390625 0
  0.046875   0.984375 0
  0.171875   0.468750 0
  0.968750   0.031250 0
  0.171875   0.484375 0
  0.671875   0.734375 0
  0.109375   0.734375 0
  0.609375   0.968750 0
  0.171875   0.406250 0
  0.171875   0.421875 0
  0.171875   0.437500 0
  0.968750   0.000000 0
  0.109375   0.656250 0
  0.906250   0.218750 0
  0.265625   0.546875 0
  0.390625   0.046875 0
  0.203125   0.796875 0
  0.328125   0.296875 0
  0.828125   0.546875 0
  0.031250   0.984375 0
  0.078125   0.421875 0
  0.062500   0.421875 0
  0.578125   0.671875 0
  0.562500   0.671875 0
  0.015625   0.671875 0
  0.515625   0.921875 0
  0.078125   0.359375 0
  0.093750   0.421875 0
  0.109375   0.421875 0
  0.593750   0.671875 0
  0.609375   0.671875 0
  0.046875   0.671875 0
  0.531250   0.921875 0
  0.093750   0.359375 0
  0.109375   0.359375 0
  0.062500   0.406250 0
  0.078125   0.406250 0
  0.062500   0.390625 0
  0.078125   0.390625 0
  0.078125   0.375000 0
  0.562500   0.656250 0
  0.578125   0.656250 0
  0.562500   0.640625 0
  0.578125   0.640625 0
  0.000000   0.656250 0
  0.015625   0.640625 0
  0.000000   0.625000 0
  0.515625   0.906250 0
  0.515625   0.890625 0
  0.078125   0.343750 0
  0.078125   0.328125 0
  0.140625   0.000000 0
  0.078125   0.265625 0
  0.000000   0.515625 0
  0.015625   0.515625 0
  0.812500   0.078125 0
  0.015625   0.500000 0
  0.000000   0.500000 0
  0.796875   0.062500 0
  0.156250   0.015625 0
  0.171875   0.000000 0
  0.671875   0.265625 0
  0.093750   0.265625 0
  0.109375   0.265625 0
  0.609375   0.515625 0
  0.031250   0.500000 0
  0.828125   0.062500 0
  0.031250   0.515625 0
  0.046875   0.500000 0
  0.046875   0.515625 0
  0.843750   0.078125 0
  0.546875   0.750000 0
  0.546875   0.765625 0
  0.281250   0.546875 0
  0.296875   0.546875 0
  0.218750   0.796875 0
  0.234375   0.796875 0
  0.343750   0.296875 0
  0.359375   0.296875 0
  0.296875   0.609375 0
  0.812500   0.859375 0
  0.437500   0.109375 0
  0.421875   0.109375 0
  0.937500   0.359375 0
  0.234375   0.859375 0
  0.359375   0.359375 0
  0.859375   0.609375 0
  0.296875   0.531250 0
  0.296875   0.515625 0
  0.234375   0.781250 0
  0.234375   0.765625 0
  0.359375   0.281250 0
  0.359375   0.265625 0
  0.312500   0.593750 0
  0.296875   0.562500 0
  0.296875   0.578125 0
  0.796875   0.843750 0
  0.437500   0.093750 0
  0.421875   0.078125 0
  0.921875   0.343750 0
  0.234375   0.812500 0
  0.234375   0.828125 0
  0.359375   0.343750 0
  0.359375   0.312500 0
  0.359375   0.328125 0
  0.859375   0.593750 0
  0.859375   0.578125 0
  0.265625   0.609375 0
  0.406250   0.109375 0
  0.890625   0.359375 0
  0.093750   0.796875 0
  0.203125   0.859375 0
  0.343750   0.359375 0
  0.328125   0.359375 0
  0.843750   0.609375 0
  0.828125   0.609375 0
  0.484375   0.546875 0
  0.484375   0.562500 0
  0.703125   0.156250 0
  0.593750   0.640625 0
  0.593750   0.656250 0
  0.609375   0.656250 0
  0.609375   0.640625 0
  0.718750   0.140625 0
  0.531250   0.890625 0
  0.531250   0.906250 0
  0.546875   0.906250 0
  0.265625   0.421875 0
  0.765625   0.671875 0
  0.218750   0.671875 0
  0.203125   0.656250 0
  0.734375   0.156250 0
  0.718750   0.171875 0
  0.078125   0.484375 0
  0.875000   0.046875 0
  0.062500   0.484375 0
  0.859375   0.046875 0
  0.578125   0.734375 0
  0.562500   0.734375 0
  0.015625   0.734375 0
  0.812500   0.296875 0
  0.156250   0.921875 0
  0.281250   0.421875 0
  0.296875   0.421875 0
  0.781250   0.671875 0
  0.796875   0.671875 0
  0.093750   0.484375 0
  0.890625   0.046875 0
  0.109375   0.484375 0
  0.906250   0.046875 0
  0.593750   0.734375 0
  0.609375   0.734375 0
  0.718750   0.156250 0
  0.031250   0.734375 0
  0.828125   0.296875 0
  0.046875   0.734375 0
  0.843750   0.296875 0
  0.843750   0.546875 0
  0.859375   0.546875 0
  0.062500   0.984375 0
  0.859375   0.562500 0
  0.781250   0.796875 0
  0.796875   0.812500 0
  0.906250   0.296875 0
  0.921875   0.312500 0
  0.546875   0.109375 0
  0.546875   0.125000 0
  0.359375   0.859375 0
  0.421875   0.609375 0
  0.500000   0.359375 0
  0.484375   0.359375 0
  0.093750   0.375000 0
  0.093750   0.390625 0
  0.093750   0.406250 0
  0.109375   0.406250 0
  0.109375   0.375000 0
  0.109375   0.390625 0
  0.031250   0.656250 0
  0.734375   0.515625 0
  0.234375   0.265625 0
  0.671875   0.750000 0
  0.671875   0.765625 0
  0.171875   0.500000 0
  0.968750   0.062500 0
  0.171875   0.515625 0
  0.265625   0.531250 0
  0.281250   0.531250 0
  0.281250   0.515625 0
  0.265625   0.515625 0
  0.203125   0.781250 0
  1.000000   0.343750 0
  0.218750   0.781250 0
  0.218750   0.765625 0
  0.890625   0.187500 0
  0.093750   0.625000 0
  0.203125   0.765625 0
  1.000000   0.328125 0
  0.328125   0.281250 0
  0.343750   0.281250 0
  0.343750   0.265625 0
  0.328125   0.265625 0
  0.281250   0.593750 0
  0.281250   0.562500 0
  0.265625   0.578125 0
  0.265625   0.562500 0
  0.781250   0.828125 0
  0.765625   0.812500 0
  0.406250   0.093750 0
  0.406250   0.078125 0
  0.406250   0.062500 0
  0.390625   0.078125 0
  0.906250   0.328125 0
  0.890625   0.312500 0
  0.218750   0.843750 0
  0.218750   0.812500 0
  0.203125   0.828125 0
  0.890625   0.234375 0
  0.093750   0.671875 0
  0.203125   0.812500 0
  1.000000   0.375000 0
  0.328125   0.343750 0
  0.343750   0.343750 0
  0.343750   0.328125 0
  0.343750   0.312500 0
  0.328125   0.328125 0
  0.328125   0.312500 0
  0.828125   0.593750 0
  0.843750   0.593750 0
  0.843750   0.578125 0
  0.843750   0.562500 0
  0.046875   1.000000 0
  0.828125   0.578125 0
  0.828125   0.562500 0
  0.984375   0.765625 0
  1.000000   0.765625 0
  0.484375   0.531250 0
  0.484375   0.515625 0
  0.171875   0.031250 0
  0.109375   0.281250 0
  0.109375   0.296875 0
  0.046875   0.531250 0
  0.046875   0.546875 0
  0.843750   0.109375 0
  0.093750   0.296875 0
  0.093750   0.281250 0
  0.078125   0.281250 0
  0.078125   0.312500 0
  0.078125   0.296875 0
  0.031250   0.546875 0
  0.031250   0.531250 0
  0.828125   0.093750 0
  0.015625   0.531250 0
  0.000000   0.531250 0
  0.796875   0.093750 0
  0.015625   0.562500 0
  0.812500   0.125000 0
  0.015625   0.546875 0
  0.812500   0.109375 0
  0.000000   0.546875 0
  0.796875   0.109375 0
  0.000000   0.562500 0
  0.796875   0.125000 0
  0.296875   0.437500 0
  0.296875   0.453125 0
  0.171875   0.937500 0
  0.359375   0.187500 0
  0.234375   0.687500 0
  0.296875   0.406250 0
  0.296875   0.390625 0
  0.796875   0.656250 0
  0.796875   0.640625 0
  0.296875   0.468750 0
  0.296875   0.484375 0
  0.296875   0.500000 0
  0.171875   0.968750 0
  0.859375   0.406250 0
  0.062500   0.843750 0
  0.171875   0.984375 0
  0.968750   0.546875 0
  0.171875   1.000000 0
  0.968750   0.562500 0
  0.359375   0.234375 0
  0.359375   0.250000 0
  0.234375   0.718750 0
  0.921875   0.156250 0
  0.125000   0.593750 0
  0.234375   0.734375 0
  0.234375   0.750000 0
  0.093750   0.312500 0
  0.093750   0.328125 0
  0.093750   0.343750 0
  0.109375   0.343750 0
  0.109375   0.312500 0
  0.109375   0.328125 0
  0.031250   0.562500 0
  0.828125   0.125000 0
  0.031250   0.578125 0
  0.828125   0.140625 0
  0.046875   0.593750 0
  0.843750   0.156250 0
  0.046875   0.562500 0
  0.984375   0.656250 0
  1.000000   0.656250 0
  0.984375   0.625000 0
  0.984375   0.640625 0
  1.000000   0.640625 0
  1.000000   0.625000 0
  0.140625   0.906250 0
  0.265625   0.406250 0
  0.281250   0.406250 0
  0.281250   0.390625 0
  0.265625   0.390625 0
  0.765625   0.656250 0
  0.781250   0.656250 0
  0.781250   0.640625 0
  0.765625   0.640625 0
  0.281250   0.500000 0
  0.281250   0.484375 0
  0.265625   0.500000 0
  0.265625   0.484375 0
  0.843750   0.421875 0
  0.046875   0.859375 0
  0.156250   1.000000 0
  0.953125   0.562500 0
  0.156250   0.984375 0
  0.953125   0.546875 0
  0.140625   1.000000 0
  0.937500   0.562500 0
  0.828125   0.406250 0
  0.031250   0.843750 0
  0.140625   0.984375 0
  0.937500   0.546875 0
  0.343750   0.250000 0
  0.343750   0.234375 0
  0.328125   0.250000 0
  0.328125   0.234375 0
  0.906250   0.171875 0
  0.109375   0.609375 0
  0.218750   0.750000 0
  0.218750   0.734375 0
  0.203125   0.750000 0
  1.000000   0.312500 0
  0.890625   0.156250 0
  0.093750   0.593750 0
  0.203125   0.734375 0
  1.000000   0.296875 0
  0.859375   0.531250 0
  0.859375   0.500000 0
  0.062500   0.937500 0
  0.859375   0.515625 0
  0.062500   0.953125 0
  0.796875   0.765625 0
  0.921875   0.281250 0
  0.921875   0.250000 0
  0.125000   0.687500 0
  0.234375   0.843750 0
  0.921875   0.265625 0
  0.125000   0.703125 0
  0.734375   0.531250 0
  0.734375   0.546875 0
  0.234375   0.281250 0
  0.234375   0.296875 0
  0.796875   0.296875 0
  0.000000   0.734375 0
  0.171875   0.531250 0
  0.968750   0.093750 0
  0.171875   0.546875 0
  0.968750   0.109375 0
  0.718750   0.515625 0
  0.703125   0.515625 0
  0.218750   0.265625 0
  0.203125   0.265625 0
  0.765625   0.265625 0
  0.656250   0.765625 0
  0.640625   0.765625 0
[...]
CELL_DATA 4096
VECTORS vector_value float
-4.86115e-05 -0.000633921 0
-7.24232e-05 -0.000648763 0
0.000236667 -0.035537 0
-0.00430173 -0.0383779 0
0.00926441 -0.0804877 0
0.236389 -2.35868 0
-0.467479 -2.39475 0
0.0116706 -0.0441514 0
0.000356087 -0.000533969 0
-0.00592876 -0.0388397 0
-0.0273903 -0.0534073 0
0.000320694 -0.000997641 0
-0.0210874 -2.28619 0
0.441205 -2.32831 0
0.0440805 -0.11182 0
0.0254684 -0.154765 0
0.00494169 -0.036328 0
-0.00195766 -0.0342795 0
0.000348368 -0.000733673 0
0.000517488 -0.000764492 0
0.0158491 -0.0787675 0
-0.00016085 -0.000547701 0
-0.000480118 -0.000538192 0
0.00562427 -0.0902805 0
0.000265893 -0.00061835 0
0.0173369 -3.14137 0
-0.268058 -3.13876 0
-0.000137042 -0.000616908 0
-0.0103936 -0.0335757 0
0.0643087 -1.44998 0
0.00129418 -1.39969 0
-0.00280899 -0.0127204 0
-0.218947 -2.40992 0
0.178896 -1.69457 0
-0.00208844 -0.0283939 0
0.0027992 -0.0289543 0
-0.0118207 -0.0166271 0
0.705163 -0.757048 0
0.000215886 -0.000574024 0
-0.0174353 -0.0477038 0
0.0292785 -1.06455 0
0.0488988 -1.00258 0
-0.00459019 -0.0205146 0
-0.000232316 -0.00541774 0
0.173831 -2.13443 0
0.0365788 -1.86416 0
-0.059388 -0.0750113 0
-0.0138106 -0.0435364 0
-0.130665 -0.0165023 0
0.00170419 -0.00423636 0
-0.0292004 -2.55332 0
0.179862 -1.63912 0
0.000583626 -0.00445835 0
-0.473937 -2.7093 0
-0.109101 -2.71647 0
0.00369234 -0.00318888 0
-5.30868e-05 -0.00744212 0
0.00157565 -0.00470941 0
-0.00339727 -0.301765 0
0.0174202 -0.305163 0
0.00328552 -0.00344827 0
-0.0291297 -0.843886 0
-0.000199761 -0.991181 0
0.84571 -1.37927 0
0.0675525 -0.465345 0
0.000693588 -0.00471109 0
-0.000341043 -0.00544053 0
-0.111681 -2.75478 0
0.00271318 -0.00325649 0
-0.000925354 -0.00756499 0
-0.481438 -2.7476 0
-0.456081 -2.72267 0
0.141059 -2.74532 0
0.038364 -0.345079 0
0.00936544 -0.366438 0
0.0259627 -0.228452 0
-0.00313807 -0.00640168 0
0.000723257 -0.00685022 0
0.036793 -0.278847 0
-0.00100947 -0.000698885 0
-0.000830362 -0.000673746 0
0.0330216 -0.195135 0
0.054712 -0.141151 0
0.0432917 -0.287393 0
0.70412 -2.8109 0
-0.0410341 -2.86681 0
0.0265802 -0.231669 0
0.0674601 -0.472163 0
-0.000396491 -0.0047479 0
-0.00226743 -0.00549158 0
0.855408 -1.39865 0
0.00232816 -0.00347099 0
0.000552736 -0.00473869 0
-0.00431786 -0.306198 0
0.0167523 -0.309457 0
0.818624 -1.41382 0
0.181647 -1.68291 0
-0.226839 -2.53878 0
0.0617014 -0.555685 0
0.0270025 -1.3933 0
0.0778085 -1.48031 0
0.016301 -1.61545 0
0.0794422 -1.70169 0
0.130324 -0.579786 0
0.0181671 -0.346763 0
0.000262789 -0.00443574 0
0.000101513 -0.00478623 0
0.000930363 -0.00683943 0
-0.00296987 -0.0063924 0
0.141146 -2.74389 0
-0.4557 -2.72135 0
-0.00252751 -0.00298807 0
-0.529829 -1.82165 0
0.284559 -1.58352 0
-0.00422507 -0.00425402 0
-0.0517923 -2.818 0
0.0259359 -0.227021 0
0.0367428 -0.277076 0
0.79423 -2.76762 0
0.0927285 -1.93219 0
-0.305322 -1.91741 0
-0.00286469 -0.00449871 0
-0.00506091 -0.00460938 0
0.0544006 -0.140261 0
0.0328741 -0.193936 0
-0.0244653 -2.85014 0
0.555407 -2.9027 0
0.000236397 -0.00411455 0
0.00211334 -0.252535 0
0.0262819 -0.241395 0
0.000494118 -0.00371264 0
0.703837 -2.80935 0
-0.000794269 -0.000671322 0
-0.000976654 -0.000696985 0
-0.041004 -2.86521 0
-0.210884 -0.0107226 0
-0.234939 -0.00641944 0
-0.0548279 -0.920484 0
-0.054127 -0.702311 0
-0.0501976 -0.354279 0
-0.289325 -3.08982 0
-0.688157 -3.25459 0
-0.0242862 -0.363554 0
0.0798515 -1.49697 0
-1.65482e-06 -0.00382738 0
0.000644224 -0.00571286 0
0.287237 -1.80392 0
0.388716 -1.74211 0
-0.369226 -2.73643 0
0.0125229 -0.504095 0
0.615729 -1.30485 0
0.00785504 -0.0257098 0
0.00193446 -0.0066047 0
0.0640514 -1.40114 0
0.0624221 -1.30963 0
-0.113861 -1.16444 0
-0.248108 -0.00807285 0
-0.263504 -0.00997528 0
-0.119559 -1.42269 0
0.0816658 -1.47477 0
0.0198147 -1.61373 0
0.0874266 -1.69338 0
0.032393 -1.38467 0
0.780983 -2.7681 0
-0.410526 -2.72771 0
-0.00256862 -0.00760502 0
-0.00250355 -0.00265943 0
0.6744 -2.92472 0
-0.0365154 -2.86954 0
-0.000241046 -0.000632933 0
0.000100721 -0.000705644 0
-0.00336533 -0.00428148 0
0.01876 -0.315989 0
0.0337477 -0.279339 0
-0.00155285 -0.00320466 0
-0.000285611 -0.000677892 0
0.0362377 -0.195261 0
0.0480256 -0.140089 0
-0.000275339 -0.000461251 0
0.0540206 -0.482696 0
-0.00303761 -0.456712 0
-0.00428572 -0.00452641 0
-0.00478832 -0.00481348 0
-0.00937641 -0.0070526 0
-0.0136691 -0.00707267 0
0.155396 -3.06597 0
-0.577168 -3.05161 0
0.0449961 -0.283573 0
0.0283373 -0.229199 0
-0.000814181 -0.00647225 0
0.00293068 -0.00645944 0
-0.00621615 -0.000705554 0
-0.0394405 -3.38035 0
-0.000166414 -0.0034975 0
-0.159283 -2.59367 0
-0.0549918 -2.569 0
-0.00321679 -0.00445401 0
-0.00102222 -0.000694961 0
-0.0382942 -2.83419 0
0.697117 -2.77685 0
-0.000855253 -0.000674233 0
-0.00814461 -0.00650604 0
0.00168724 -1.59546 0
0.839383 -1.39481 0
-0.00980425 -0.0055174 0
-0.0735055 -2.92054 0
-0.0107495 -0.00481841 0
-0.00820845 -0.00389081 0
-0.157848 -2.94483 0
0.00243007 -0.00441844 0
0.00484239 -0.353503 0
0.0391161 -0.338779 0
0.00492088 -0.00359439 0
-0.0107272 -0.000698616 0
0.0688983 -1.83948 0
0.0781038 -1.70862 0
-0.0346371 -0.0253201 0
-0.0430984 -0.0204513 0
-0.0144315 -0.00587011 0
-0.0125044 -0.00542311 0
0.192642 -1.8866 0
0.0345367 -1.66687 0
0.18324 -0.816397 0
0.0266297 -0.486497 0
0.000648356 -0.00495742 0
-0.00137351 -0.00535396 0
-0.0129266 -0.00559188 0
0.049479 -1.36147 0
0.144068 -1.25794 0
-0.0118829 -0.00612768 0
-0.802072 -2.71479 0
0.0129547 -0.516971 0
0.181404 -0.86446 0
0.403847 -2.36234 0
0.00160095 -0.00403271 0
-0.74204 -2.56102 0
0.401457 -2.2306 0
-0.000145692 -0.00579754 0
-0.0547288 -2.11731 0
0.171858 -1.65976 0
0.0722175 -1.461 0
-0.00617036 -0.00488142 0
-0.00511846 -0.00461502 0
0.0292534 -0.359774 0
-0.00633433 -0.377373 0
-0.466129 -2.85593 0
0.126791 -2.88079 0
0.133622 -2.71077 0
-0.425674 -2.69229 0
0.00015342 -0.00618495 0
-0.00332157 -0.00635846 0
0.00779237 -0.134856 0
0.398237 -2.13951 0
-0.00988001 -0.00483802 0
0.0224294 -0.951395 0
0.0103223 -0.866565 0
-0.0443185 -0.0180441 0
0.197526 -1.23985 0
0.0521938 -1.02175 0
-0.00635701 -0.00269268 0
-0.00530057 -0.00413207 0
0.016865 -0.307457 0
-0.0040692 -0.304164 0
-0.110728 -2.73682 0
-0.478135 -2.72973 0
0.00751905 -0.0125165 0
0.1099 -1.12378 0
0.403729 -0.918278 0
-0.000520001 -0.00512109 0
0.0477232 -1.21468 0
0.0266379 -1.1796 0
0.00269118 -0.0174707 0
0.00192918 -0.0201891 0
-0.00255007 -0.00248301 0
-0.363248 -2.14947 0
0.108095 -2.1675 0
0.026968 -0.272154 0
0.00403372 -0.289871 0
0.04046 -0.210422 0
0.0605507 -0.149513 0
-0.00045967 -0.00071184 0
-0.000320462 -0.00063797 0
0.243008 -1.39754 0
-0.475301 -1.61548 0
0.0145887 -0.307497 0
0.113239 -0.510322 0
0.0370988 -0.275085 0
0.0262597 -0.225454 0
-0.00235787 -0.00638161 0
0.00162494 -0.00682568 0
0.0196871 -0.1953 0
-0.00554447 -0.00512139 0
-0.00307495 -0.00549301 0
0.0282885 -0.238822 0
0.000222944 -0.000639253 0
0.580337 -3.02514 0
-0.0245857 -2.96476 0
9.40923e-05 -0.000602456 0
0.0183414 -0.274039 0
-0.012718 -0.00279397 0
-0.0147928 -0.00393861 0
-0.00436299 -0.294283 0
-0.00029718 -0.000704063 0
-0.0510961 -2.79738 0
0.788999 -2.74696 0
-0.000153571 -0.000630298 0
-0.00144555 -0.000568682 0
-0.001343 -0.000554755 0
0.0270547 -0.166328 0
0.0460704 -0.120743 0
-0.594291 -3.07938 0
0.281967 -3.06496 0
0.000135422 -0.00078958 0
-7.57738e-05 -0.000746728 0
-0.0133122 -0.00421316 0
-0.0116529 -0.00411578 0
0.0232549 -0.227094 0
0.0118526 -0.181685 0
0.551624 -2.88192 0
-0.0240674 -2.82955 0
0.000260743 -0.000653688 0
0.000596049 -0.000660561 0
0.0312982 -0.226382 0
0.552734 -2.21869 0
-0.0337464 -2.26084 0
0.0187328 -0.182202 0
0.000176167 -0.00066156 0
0.0706 -1.88156 0
0.300392 -1.1197 0
0.0431588 -1.40869 0
0.0219919 -1.88161 0
0.0419927 -1.7875 0
-0.106935 -0.0251431 0
-0.0233054 -0.0066591 0
0.0418735 -1.31334 0
-0.121724 -1.39834 0
0.904103 -1.61963 0
-0.945081 -3.00053 0
-0.118831 -0.0209063 0
-0.509986 -2.95073 0
-0.111011 -0.113767 0
-6.5122e-05 -0.000741973 0
0.00560497 -2.0415 0
0.169297 -2.63451 0
0.190719 -1.99359 0
-0.00586803 -0.00308276 0
0.937099 -1.00078 0
0.203803 -2.20171 0
-0.0380913 -0.00772268 0
0.0232369 -3.15842 0
0.000292295 -0.000591346 0
-0.0128402 -1.98869 0
0.296721 -2.96617 0
0.128624 -0.271344 0
-0.000459367 -0.000671543 0
0.126958 -2.01996 0
0.0513734 -1.38025 0
0.953729 -1.04871 0
0.230131 -2.14681 0
0.00381117 -0.0367153 0
-0.00382165 -0.000892616 0
-0.0168844 -3.0809 0
-0.012856 -0.0677044 0
0.099445 -0.165446 0
-0.378076 -2.98182 0
-0.300475 -3.0561 0
0.00677878 -0.0378615 0
0.0323538 -0.112224 0
0.0359002 -0.200655 0
0.0164287 -0.230914 0
-0.000357536 -0.0040292 0
-0.394065 -3.10634 0
0.00688549 -0.0394569 0
-6.28812e-05 -0.00075023 0
-0.373125 -3.48157 0
-0.0394375 -3.01997 0
-0.0681566 -0.0874524 0
0.0497855 -0.147126 0
-0.000511885 -0.00144159 0
0.0564817 -0.14328 0
-0.000543382 -0.00065533 0
0.257809 -2.93774 0
7.63212e-05 -0.000633464 0
5.54075e-05 -0.000695485 0
-0.0258574 -2.87562 0
-0.0546863 -2.84453 0
-0.0020255 -0.000704387 0
-0.0251039 -2.84483 0
-0.000721724 -0.000707259 0
-4.65333e-05 -0.000639605 0
-0.00185177 -0.000623496 0
-0.487674 -2.75733 0
0.0179198 -0.230813 0
-0.00141681 -0.000626225 0
0.0327144 -0.279399 0
0.896778 -1.48481 0
0.0315273 -1.19114 0
0.0652808 -1.56538 0
-0.0294515 -0.0172804 0
0.06213 -1.70566 0
0.630274 -1.12678 0
0.0221218 -0.114477 0
-0.00987608 -1.75551 0
0.0417341 -1.25457 0
-0.000447474 -0.000599522 0
0.0161409 -1.37185 0
-0.0686633 -0.010447 0
-0.0115397 -0.0394611 0
-0.00129496 -0.00241515 0
-0.178043 -2.83829 0
-0.157583 -0.0301311 0
0.0361329 -0.198114 0
-0.00463788 -0.499964 0
0.0228884 -1.3443 0
0.0472025 -1.73893 0
0.0576935 -0.527621 0
0.0436698 -1.30906 0
-0.064587 -2.808 0
4.39424e-05 -0.00645779 0
-0.00558174 -1.4122 0
0.0415651 -0.410541 0
-0.609733 -3.27897 0
0.0518097 -1.92888 0
-0.00392408 -0.0398738 0
0.850804 -1.01383 0
0.00719474 -2.96048 0
0.000238811 -0.000548556 0
-0.000708768 -0.000696581 0
-0.00564212 -0.0366752 0
0.0751828 -1.8593 0
-0.00179741 -0.000665854 0
-0.00722246 -0.00630035 0
0.0226658 -1.40899 0
-0.00968412 -0.0377644 0
-0.0310429 -0.0178573 0
-0.00112711 -0.57272 0
-0.251369 -2.94194 0
-0.0300196 -0.00460662 0
-0.000234276 -0.00068628 0
-0.0271696 -0.0249057 0
0.124171 -1.47311 0
0.00333188 -2.94247 0
0.868985 -0.950494 0
-0.0357227 -0.0168772 0
0.00321935 -0.0346267 0
-0.00626341 -0.00521604 0
0.00680693 -1.69563 0
-0.0589658 -0.0183624 0
-0.00564525 -0.00490368 0
0.071309 -1.64037 0
0.187729 -1.81825 0
-0.0158192 -0.023507 0
0.0146478 -1.27508 0
0.0734982 -1.60298 0
-0.0201635 -0.0169413 0
-0.179182 -2.91814 0
-0.313031 -3.18361 0
-0.0118213 -0.0431989 0
-0.0506113 -0.0700809 0
0.000180304 -0.000694893 0
-0.000531003 -0.000712026 0
0.00629828 -0.0370842 0
-0.277699 -2.79989 0
-0.00257205 -0.033334 0
0.0198798 -2.80198 0
-0.000229309 -0.000661664 0
-0.00282006 -0.0311548 0
-0.0565553 -0.0220589 0
-0.0462095 -0.0272765 0
0.0392678 -1.37467 0
0.903203 -1.03418 0
0.0696626 -1.52772 0
-0.0406205 -0.0170284 0
-0.00587291 -0.00496185 0
0.018166 -1.61436 0
0.180572 -1.73392 0
-0.039422 -0.0236412 0
0.0405827 -1.3454 0
-0.00996011 -0.0052457 0
-0.0164074 -0.0436311 0
-0.00620583 -0.00647199 0
-0.0164265 -0.00385443 0
1.1214e-05 -0.000878671 0
0.0668449 -1.43133 0
-0.00253714 -0.00348197 0
-0.0408261 -2.82607 0
-0.00332138 -0.00612664 0
-0.00457114 -0.00464669 0
0.0137687 -1.55153 0
-0.012905 -0.00657854 0
0.784731 -1.35735 0
-0.0144441 -0.00557403 0
-0.126505 -3.00884 0
-0.00280361 -0.00346228 0
0.0102616 -1.40363 0
-0.00370189 -0.00858521 0
0.880339 -3.12014 0
-0.048458 -0.0189079 0
0.0229864 -1.31419 0
-0.00809478 -0.0384613 0
0.179503 -1.95445 0
0.000227972 -0.000607565 0
-0.0374766 -0.0564425 0
-0.010828 -0.00704182 0
0.0141879 -1.51194 0
-0.00918338 -0.32695 0
0.0612858 -1.35912 0
-0.0436773 -2.75347 0
-0.00555863 -0.00623903 0
0.00809248 -1.6147 0
0.249053 -1.60121 0
0.815207 -1.4163 0
0.362571 -2.03226 0
0.0358831 -0.448415 0
0.0065553 -0.0438116 0
0.0662661 -1.48867 0
-0.00180866 -0.00521401 0
-0.0168538 -0.00101399 0
-0.049299 -0.0173453 0
0.0196726 -0.346278 0
-0.123959 -0.47722 0
0.852346 -3.03608 0
-0.0241401 -0.00447508 0
0.00612979 -0.103277 0
0.0361091 -0.306151 0
0.173664 -1.61636 0
0.863223 -1.43524 0
-0.452411 -2.98833 0
0.000577591 -0.00468773 0
0.0573501 -1.51603 0
0.0463235 -0.265727 0
0.842778 -3.37127 0
-0.0194554 -1.85791 0
-0.000250094 -0.00058875 0
0.0568409 -1.81638 0
-0.0110181 -1.41267 0
0.113241 -0.188806 0
0.17302 -2.08881 0
0.828661 -0.891909 0
-0.00031829 -0.000745767 0
0.839239 -0.968997 0
-0.00376433 -0.0324236 0
0.913042 -1.52166 0
0.0484763 -1.23178 0
-0.00294035 -1.73741 0
0.899296 -0.941665 0
0.0711117 -1.59637 0
-0.00710685 -0.0178045 0
0.783941 -0.984326 0
-0.0024376 -0.0247759 0
-0.0635264 -3.13275 0
-0.00387148 -0.0326784 0
-0.000256868 -0.000680839 0
0.0656074 -0.1625 0
-0.000183473 -0.000502083 0
-0.0120984 -0.0402304 0
-0.0522121 -0.0681332 0
0.000162744 -0.000994038 0
0.845289 -0.930631 0
0.186689 -2.07438 0
0.0312628 -1.22668 0
0.0697794 -1.78082 0
-0.00135311 -0.000714919 0
0.0151005 -3.21036 0
-0.0195959 -0.0508734 0
-0.158737 -3.16062 0
-0.00115162 -0.000745952 0
-9.35389e-05 -0.00105681 0
0.73151 -2.92691 0
0.0133045 -0.0668776 0
0.183018 -1.81353 0
-0.00011643 -0.00116536 0
0.0269627 -0.240837 0
-0.0014506 -0.000739041 0
0.340679 -3.4162 0
-0.000991901 -0.000935293 0
0.000197165 -0.000622508 0
0.00803083 -2.90018 0
-0.247713 -2.89902 0
0.0373314 -1.169 0
0.0677312 -1.67132 0
-0.0350959 -0.0571479 0
-0.000653323 -0.000689263 0
-0.00100455 -0.000737053 0
-0.00519603 -0.00671696 0
-0.0289645 -3.30566 0
0.0380171 -0.30453 0
0.018988 -0.253099 0
-0.000697233 -0.000640511 0
-0.0147254 -0.0440047 0
-8.98382e-06 -0.00100504 0
0.00030498 -0.000530172 0
-0.299653 -2.96515 0
0.0586115 -1.99444 0
9.37608e-05 -0.000654929 0
-0.579699 -2.94256 0
0.0227179 -1.34805 0
-0.00246069 -0.0335274 0
0.197024 -2.22449 0
-0.000261148 -0.000637194 0
0.000130928 -0.000712906 0
-0.0256404 -0.0500484 0
0.017319 -0.0899211 0
-0.289422 -2.95639 0
-0.000121634 -0.00057459 0
0.0555273 -0.141177 0
-0.0349556 -0.0235569 0
0.022979 -1.47696 0
0.200021 -2.07605 0
-0.0125511 -0.00597019 0
0.0791574 -1.77304 0
-0.558141 -2.8873 0
0.887466 -1.00047 0
0.00446482 -0.033691 0
-0.0443361 -0.026194 0
0.0162776 -2.83424 0
-0.0597729 -3.34611 0
0.0104535 -1.26326 0
-0.017169 -0.0515816 0
-0.000595672 -0.000824907 0
0.0140704 -0.0575863 0
-0.000603356 -0.000728751 0
-0.0132402 -0.0529034 0
0.000181304 -0.000881041 0
-0.000400812 -0.000619892 0
0.017227 -0.0876224 0
0.000178887 -0.00128226 0
0.644657 -3.44017 0
0.0455293 -1.42592 0
-0.226356 -2.50513 0
0.193692 -1.66245 0
0.00229032 -0.00465331 0
0.0128179 -0.110471 0
-0.0297652 -2.82381 0
-0.000327371 -0.000634292 0
0.179136 -1.62532 0
0.0503683 -0.47711 0
-0.0258574 -2.84958 0
0.0359451 -0.336822 0
0.136466 -2.68101 0
0.05919 -0.152711 0
0.686199 -2.74457 0
0.00666881 -0.112188 0
0.0410612 -0.280337 0
-0.00104721 -0.000695356 0
-0.700003 -2.40392 0
0.0216987 -0.234646 0
-0.402311 -2.52544 0
0.031544 -0.199304 0
0.00117802 -0.332162 0
-0.0022675 -0.000683094 0
0.0327738 -0.111065 0
-0.361492 -2.74537 0
-0.000247746 -0.00057699 0
-0.293659 -2.96381 0
-0.000545335 -0.00086419 0
0.0466117 -0.137899 0
-0.00639511 -0.0030828 0
-0.0540293 -0.082013 0
-0.369352 -2.91177 0
0.0577229 -0.161581 0
-0.000715002 -0.000722248 0
0.000900217 -0.039088 0
-0.0152199 -2.71985 0
0.0225794 -0.228492 0
-0.000491388 -0.000707694 0
-0.415414 -3.90117 0
-0.00582176 -0.33786 0
0.147694 -1.62681 0
-0.0260592 -0.340511 0
0.0766141 -1.47069 0
0.281207 -1.77258 0
-0.0243951 -0.00375112 0
0.571149 -1.31082 0
0.0417044 -0.543841 0
0.74494 -1.34284 0
0.0403164 -1.36871 0
0.0410954 -1.46556 0
-0.0029264 -0.0365801 0
-0.00148868 -0.00100312 0
-0.0178263 -0.00583314 0
0.0371476 -1.85939 0
0.00144079 -0.00480766 0
0.0447244 -0.440039 0
-0.0468839 -1.48337 0
0.211993 -1.47595 0
0.00138231 -0.00481693 0
0.638479 -1.11457 0
0.0354847 -0.212675 0
0.13186 -2.69433 0
-0.00419351 -0.00636781 0
-0.529719 -3.00369 0
-0.00182956 -0.00584474 0
0.3965 -2.2173 0
-0.00290133 -0.00567277 0
-0.00134906 -0.00585452 0
0.00952761 -1.44688 0
0.173882 -1.21179 0
0.763441 -0.811934 0
-0.0104925 -0.0167767 0
0.0436019 -1.48449 0
0.0150304 -1.36014 0
-0.446774 -2.65911 0
-0.22452 -2.4797 0
0.0161875 -0.245577 0
0.00756186 -0.358132 0
-0.00231871 -0.000662343 0
0.370535 -2.09489 0
0.252115 -1.65198 0
0.0108097 -0.319147 0
0.134553 -2.62586 0
-0.476513 -2.83388 0
0.0318268 -0.287043 0
0.710423 -2.67294 0
0.168272 -0.766649 0
-0.00594935 -0.00691648 0
0.0110545 -0.292122 0
0.0123487 -0.310551 0
-0.0002538 -0.000603645 0
0.0218491 -2.26898 0
0.0515932 -0.529798 0
0.90834 -1.56449 0
0.053518 -1.2831 0
0.0571289 -1.37695 0
-0.0276617 -0.0052582 0
0.0354031 -1.74371 0
0.0865272 -1.83821 0
-0.0378886 -1.49004 0
0.278469 -1.75385 0
-0.188803 -1.52121 0
0.0758893 -1.45459 0
0.000299484 -0.000622854 0
0.974938 -1.04424 0
-0.116293 -2.85406 0
-0.0110237 -0.47156 0
-0.293958 -0.245283 0
-0.00723459 -0.00836143 0
-0.0307762 -1.83652 0
0.54633 -2.85632 0
-0.0330685 -2.68081 0
0.0488737 -0.497584 0
-0.164816 -1.91741 0
0.042302 -0.25997 0
-0.00355293 -0.316934 0
-0.0112852 -0.00462911 0
-0.325591 -0.0154014 0
-0.00708668 -0.0029386 0
0.0698336 -1.45064 0
0.016572 -0.336919 0
0.795944 -1.38039 0
-0.00548219 -0.00338785 0
-0.0104973 -0.316706 0
-0.436162 -2.60919 0
-0.00638003 -0.00480706 0
0.00740614 -0.351989 0
-6.27869e-05 -0.000759396 0
0.0043072 -0.0335431 0
-0.566102 -2.93378 0
0.000125127 -0.000642797 0
0.00961279 -1.92911 0
-0.294079 -2.96971 0
-0.000284285 -0.00061716 0
0.000216457 -0.000622768 0
0.0174986 -2.97231 0
-0.000157435 -0.000584757 0
0.00644282 -0.100708 0
0.0582613 -1.3945 0
0.0857536 -2.00468 0
0.238467 -2.33477 0
-0.00028574 -0.000664007 0
-0.000317775 -0.000668827 0
-0.383409 -2.91153 0
0.648646 -2.94139 0
0.000408277 -0.000726449 0
0.0416009 -0.111512 0
-0.505348 -2.92874 0
-0.00315089 -0.000483079 0
0.0214204 -0.0898728 0
0.255957 -2.91602 0
-0.00312644 -0.000480397 0
0.000583392 -0.000757046 0
0.021933 -0.152698 0
0.0742409 -1.79506 0
0.00549597 -1.47947 0
-0.0338155 -0.056164 0
0.193984 -2.09891 0
0.891588 -0.957744 0
-0.000105183 -0.000651352 0
0.00685904 -0.10393 0
0.439576 -1.77893 0
0.000208429 -0.000671476 0
0.0172052 -0.146181 0
0.54556 -2.86262 0
0.0269168 -0.180608 0
-0.00850076 -0.0388966 0
-0.00593489 -1.69331 0
0.828766 -0.908158 0
-0.0375499 -0.0587576 0
0.000255066 -0.000642785 0
-0.00019875 -0.000627693 0
0.0349328 -0.196647 0
-0.0261626 -2.04687 0
-0.000235622 -0.000718718 0
0.0344162 -0.10007 0
-2.01906e-05 -0.000691321 0
0.0261641 -0.139355 0
0.000850812 -0.0406924 0
-0.0246353 -1.84054 0
-0.00334065 -0.0432648 0
0.432289 -1.87701 0
0.000172681 -0.000777044 0
0.0308448 -0.089741 0
-0.0118162 -0.00574084 0
0.0637783 -1.70018 0
0.934608 -1.02083 0
-0.0354714 -0.0183435 0
0.0661651 -0.503369 0
-0.0351177 -0.0257136 0
0.0374298 -1.34609 0
0.000190834 -0.000650116 0
0.015358 -0.055428 0
0.000487545 -0.000729611 0
0.00482436 -0.026739 0
0.0321305 -0.111113 0
-0.00279771 -0.000654321 0
0.446942 -2.97565 0
0.000398738 -0.000526507 0
0.135101 -1.58455 0
0.178686 -1.77299 0
0.0250886 -1.70339 0
-0.0228196 -2.82125 0
0.0459925 -1.3482 0
-0.00745218 -0.00452717 0
0.0686013 -1.43407 0
0.0982749 -0.162972 0
-0.588813 -3.01577 0
9.36748e-06 -0.00048287 0
0.298503 -2.97006 0
0.000259501 -0.000766304 0
0.074353 -1.88588 0
0.203704 -2.19474 0
0.926356 -1.00333 0
-0.00749678 -0.00482508 0
0.058457 -0.533454 0
0.0399694 -1.32145 0
-0.176621 -2.7571 0
-0.0059129 -0.00547102 0
-0.0124111 -0.00477395 0
0.00220124 -1.62398 0
0.00020286 -0.000793474 0
9.30802e-05 -0.00104617 0
-0.602085 -3.20966 0
-7.20677e-05 -0.461774 0
-0.0187154 -0.00481002 0
-0.000529654 -0.000704641 0
0.0161505 -1.71037 0
0.0299593 -0.224459 0
-0.0014501 -0.00460979 0
0.160562 -1.70947 0
0.0411792 -1.25571 0
-0.00907724 -0.00508777 0
0.0533359 -0.512954 0
0.0332964 -1.33759 0
-0.00849068 -0.00477934 0
0.0655363 -1.66911 0
0.0545526 -0.368476 0
-0.00412046 -0.00777033 0
-0.0148846 -0.325397 0
0.0594109 -1.7289 0
0.150984 -2.50153 0