# vtk DataFile Version 2.0
Unstructured Grid by M++
ASCII
DATASET UNSTRUCTURED_GRID
POINTS 4225 float
  0.859375   0.484375 0
  0.062500   0.921875 0
  0.718750   0.906250 0
  0.921875   0.140625 0
  0.859375   0.390625 0
  0.843750   0.453125 0
  0.046875   0.890625 0
  0.859375   0.468750 0
  0.062500   0.906250 0
  0.859375   0.437500 0
  0.062500   0.875000 0
  0.859375   0.453125 0
  0.062500   0.890625 0
  0.906250   0.234375 0
  0.109375   0.671875 0
  0.890625   0.218750 0
  0.093750   0.656250 0
  0.843750   0.484375 0
  0.046875   0.921875 0
  0.843750   0.468750 0
  0.046875   0.906250 0
  0.828125   0.468750 0
  0.031250   0.906250 0
  0.828125   0.484375 0
  0.031250   0.921875 0
  0.906250   0.187500 0
  0.906250   0.156250 0
  0.890625   0.171875 0
  0.843750   0.437500 0
  0.843750   0.406250 0
  0.828125   0.437500 0
  0.031250   0.875000 0
  0.828125   0.421875 0
  0.343750   0.171875 0
  0.328125   0.156250 0
  0.046875   0.953125 0
  0.109375   0.703125 0
  0.171875   0.390625 0
  0.046875   0.984375 0
  0.171875   0.468750 0
  0.968750   0.031250 0
  0.171875   0.484375 0
  0.671875   0.734375 0
  0.109375   0.734375 0
  0.609375   0.968750 0
  0.171875   0.406250 0
  0.171875   0.421875 0
  0.171875   0.437500 0
  0.968750   0.000000 0
  0.109375   0.656250 0
  0.906250   0.218750 0
  0.265625   0.546875 0
  0.390625   0.046875 0
  0.203125   0.796875 0
  0.328125   0.296875 0
  0.828125   0.546875 0
  0.031250   0.984375 0
  0.078125   0.421875 0
  0.062500   0.421875 0
  0.578125   0.671875 0
  0.562500   0.671875 0
  0.015625   0.671875 0
  0.515625   0.921875 0
  0.078125   0.359375 0
  0.093750   0.421875 0
  0.109375   0.421875 0
  0.593750   0.671875 0
  0.609375   0.671875 0
  0.046875   0.671875 0
  0.531250   0.921875 0
  0.093750   0.359375 0
  0.109375   0.359375 0
  0.062500   0.406250 0
  0.078125   0.406250 0
  0.062500   0.390625 0
  0.078125   0.390625 0
  0.078125   0.375000 0
  0.562500   0.656250 0
  0.578125   0.656250 0
  0.562500   0.640625 0
  0.578125   0.640625 0
  0.000000   0.656250 0
  0.015625   0.640625 0
  0.000000   0.625000 0
  0.515625   0.906250 0
  0.515625   0.890625 0
  0.078125   0.343750 0
  0.078125   0.328125 0
  0.140625   0.000000 0
  0.078125   0.265625 0
  0.000000   0.515625 0
  0.015625   0.515625 0
  0.812500   0.078125 0
  0.015625   0.500000 0
  0.000000   0.500000 0
  0.796875   0.062500 0
  0.156250   0.015625 0
  0.171875   0.000000 0
  0.671875   0.265625 0
  0.093750   0.265625 0
  0.109375   0.265625 0
  0.609375   0.515625 0
  0.031250   0.500000 0
  0.828125   0.062500 0
  0.031250   0.515625 0
  0.046875   0.500000 0
  0.046875   0.515625 0
  0.843750   0.078125 0
  0.546875   0.750000 0
  0.546875   0.765625 0
  0.281250   0.546875 0
  0.296875   0.546875 0
  0.218750   0.796875 0
  0.234375   0.796875 0
  0.343750   0.296875 0
  0.359375   0.296875 0
  0.296875   0.609375 0
  0.812500   0.859375 0
  0.437500   0.109375 0
  0.421875   0.109375 0
  0.937500   0.359375 0
  0.234375   0.859375 0
  0.359375   0.359375 0
  0.859375   0.609375 0
  0.296875   0.531250 0
  0.296875   0.515625 0
  0.234375   0.781250 0
  0.234375   0.765625 0
  0.359375   0.281250 0
  0.359375   0.265625 0
  0.312500   0.593750 0
  0.296875   0.562500 0
  0.296875   0.578125 0
  0.796875   0.843750 0
  0.437500   0.093750 0
  0.421875   0.078125 0
  0.921875   0.343750 0
  0.234375   0.812500 0
  0.234375   0.828125 0
  0.359375   0.343750 0
  0.359375   0.312500 0
  0.359375   0.328125 0
  0.859375   0.593750 0
  0.859375   0.578125 0
  0.265625   0.609375 0
  0.406250   0.109375 0
  0.890625   0.359375 0
  0.093750   0.796875 0
  0.203125   0.859375 0
  0.343750   0.359375 0
  0.328125   0.359375 0
  0.843750   0.609375 0
  0.828125   0.609375 0
  0.484375   0.546875 0
  0.484375   0.562500 0
  0.703125   0.156250 0
  0.593750   0.640625 0
  0.593750   0.656250 0
  0.609375   0.656250 0
  0.609375   0.640625 0
  0.718750   0.140625 0
  0.531250   0.890625 0
  0.531250   0.906250 0
  0.546875   0.906250 0
  0.265625   0.421875 0
  0.765625   0.671875 0
  0.218750   0.671875 0
  0.203125   0.656250 0
  0.734375   0.156250 0
  0.718750   0.171875 0
  0.078125   0.484375 0
  0.875000   0.046875 0
  0.062500   0.484375 0
  0.859375   0.046875 0
  0.578125   0.734375 0
  0.562500   0.734375 0
  0.015625   0.734375 0
  0.812500   0.296875 0
  0.156250   0.921875 0
  0.281250   0.421875 0
  0.296875   0.421875 0
  0.781250   0.671875 0
  0.796875   0.671875 0
  0.093750   0.484375 0
  0.890625   0.046875 0
  0.109375   0.484375 0
  0.906250   0.046875 0
  0.593750   0.734375 0
  0.609375   0.734375 0
  0.718750   0.156250 0
  0.031250   0.734375 0
  0.828125   0.296875 0
  0.046875   0.734375 0
  0.843750   0.296875 0
  0.843750   0.546875 0
  0.859375   0.546875 0
  0.062500   0.984375 0
  0.859375   0.562500 0
  0.781250   0.796875 0
  0.796875   0.812500 0
  0.906250   0.296875 0
  0.921875   0.312500 0
  0.546875   0.109375 0
  0.546875   0.125000 0
  0.359375   0.859375 0
  0.421875   0.609375 0
  0.500000   0.359375 0
  0.484375   0.359375 0
  0.093750   0.375000 0
  0.093750   0.390625 0
  0.093750   0.406250 0
  0.109375   0.406250 0
  0.109375   0.375000 0
  0.109375   0.390625 0
  0.031250   0.656250 0
  0.734375   0.515625 0
  0.234375   0.265625 0
  0.671875   0.750000 0
  0.671875   0.765625 0
  0.171875   0.500000 0
  0.968750   0.062500 0
  0.171875   0.515625 0
  0.265625   0.531250 0
  0.281250   0.531250 0
  0.281250   0.515625 0
  0.265625   0.515625 0
  0.203125   0.781250 0
  1.000000   0.343750 0
  0.218750   0.781250 0
  0.218750   0.765625 0
  0.890625   0.187500 0
  0.093750   0.625000 0
  0.203125   0.765625 0
  1.000000   0.328125 0
  0.328125   0.281250 0
  0.343750   0.281250 0
  0.343750   0.265625 0
  0.328125   0.265625 0
  0.281250   0.593750 0
  0.281250   0.562500 0
  0.265625   0.578125 0
  0.265625   0.562500 0
  0.781250   0.828125 0
  0.765625   0.812500 0
  0.406250   0.093750 0
  0.406250   0.078125 0
  0.406250   0.062500 0
  0.390625   0.078125 0
  0.906250   0.328125 0
  0.890625   0.312500 0
  0.218750   0.843750 0
  0.218750   0.812500 0
  0.203125   0.828125 0
  0.890625   0.234375 0
  0.093750   0.671875 0
  0.203125   0.812500 0
  1.000000   0.375000 0
  0.328125   0.343750 0
  0.343750   0.343750 0
  0.343750   0.328125 0
  0.343750   0.312500 0
  0.328125   0.328125 0
  0.328125   0.312500 0
  0.828125   0.593750 0
  0.843750   0.593750 0
  0.843750   0.578125 0
  0.843750   0.562500 0
  0.046875   1.000000 0
  0.828125   0.578125 0
  0.828125   0.562500 0
  0.984375   0.765625 0
  1.000000   0.765625 0
  0.484375   0.531250 0
  0.484375   0.515625 0
  0.171875   0.031250 0
  0.109375   0.281250 0
  0.109375   0.296875 0
  0.046875   0.531250 0
  0.046875   0.546875 0
  0.843750   0.109375 0
  0.093750   0.296875 0
  0.093750   0.281250 0
  0.078125   0.281250 0
  0.078125   0.312500 0
  0.078125   0.296875 0
  0.031250   0.546875 0
  0.031250   0.531250 0
  0.828125   0.093750 0
  0.015625   0.531250 0
  0.000000   0.531250 0
  0.796875   0.093750 0
  0.015625   0.562500 0
  0.812500   0.125000 0
  0.015625   0.546875 0
  0.812500   0.109375 0
  0.000000   0.546875 0
  0.796875   0.109375 0
  0.000000   0.562500 0
  0.796875   0.125000 0
  0.296875   0.437500 0
  0.296875   0.453125 0
  0.171875   0.937500 0
  0.359375   0.187500 0
  0.234375   0.687500 0
  0.296875   0.406250 0
  0.296875   0.390625 0
  0.796875   0.656250 0
  0.796875   0.640625 0
  0.296875   0.468750 0
  0.296875   0.484375 0
  0.296875   0.500000 0
  0.171875   0.968750 0
  0.859375   0.406250 0
  0.062500   0.843750 0
  0.171875   0.984375 0
  0.968750   0.546875 0
  0.171875   1.000000 0
  0.968750   0.562500 0
  0.359375   0.234375 0
  0.359375   0.250000 0
  0.234375   0.718750 0
  0.921875   0.156250 0
  0.125000   0.593750 0
  0.234375   0.734375 0
  0.234375   0.750000 0
  0.093750   0.312500 0
  0.093750   0.328125 0
  0.093750   0.343750 0
  0.109375   0.343750 0
  0.109375   0.312500 0
  0.109375   0.328125 0
  0.031250   0.562500 0
  0.828125   0.125000 0
  0.031250   0.578125 0
  0.828125   0.140625 0
  0.046875   0.593750 0
  0.843750   0.156250 0
  0.046875   0.562500 0
  0.984375   0.656250 0
  1.000000   0.656250 0
  0.984375   0.625000 0
  0.984375   0.640625 0
  1.000000   0.640625 0
  1.000000   0.625000 0
  0.140625   0.906250 0
  0.265625   0.406250 0
  0.281250   0.406250 0
  0.281250   0.390625 0
  0.265625   0.390625 0
  0.765625   0.656250 0
  0.781250   0.656250 0
  0.781250   0.640625 0
  0.765625   0.640625 0
  0.281250   0.500000 0
  0.281250   0.484375 0
  0.265625   0.500000 0
  0.265625   0.484375 0
  0.843750   0.421875 0
  0.046875   0.859375 0
  0.156250   1.000000 0
  0.953125   0.562500 0
  0.156250   0.984375 0
  0.953125   0.546875 0
  0.140625   1.000000 0
  0.937500   0.562500 0
  0.828125   0.406250 0
  0.031250   0.843750 0
  0.140625   0.984375 0
  0.937500   0.546875 0
  0.343750   0.250000 0
  0.343750   0.234375 0
  0.328125   0.250000 0
  0.328125   0.234375 0
  0.906250   0.171875 0
  0.109375   0.609375 0
  0.218750   0.750000 0
  0.218750   0.734375 0
  0.203125   0.750000 0
  1.000000   0.312500 0
  0.890625   0.156250 0
  0.093750   0.593750 0
  0.203125   0.734375 0
  1.000000   0.296875 0
  0.859375   0.531250 0
  0.859375   0.500000 0
  0.062500   0.937500 0
  0.859375   0.515625 0
  0.062500   0.953125 0
  0.796875   0.765625 0
  0.921875   0.281250 0
  0.921875   0.250000 0
  0.125000   0.687500 0
  0.234375   0.843750 0
  0.921875   0.265625 0
  0.125000   0.703125 0
  0.734375   0.531250 0
  0.734375   0.546875 0
  0.234375   0.281250 0
  0.234375   0.296875 0
  0.796875   0.296875 0
  0.000000   0.734375 0
  0.171875   0.531250 0
  0.968750   0.093750 0
  0.171875   0.546875 0
  0.968750   0.109375 0
  0.718750   0.515625 0
  0.703125   0.515625 0
  0.218750   0.265625 0
  0.203125   0.265625 0
  0.765625   0.265625 0
  0.656250   0.765625 0
  0.640625   0.765625 0
[...]
POINT_DATA 4225
SCALARS scalar_value float 1
LOOKUP_TABLE default
-1.79668e-05
-2.72786e-05
-3.02917e-05
-5.92547e-06
-1.51574e-05
-1.72384e-05
-2.5359e-05
-1.76967e-05
-2.68633e-05
-1.6744e-05
-2.62359e-05
-1.72386e-05
-2.64977e-05
-1.00758e-05
-1.93617e-05
-9.54391e-06
-1.89876e-05
-1.83237e-05
-2.66914e-05
-1.76907e-05
-2.56869e-05
-1.77514e-05
-2.59217e-05
-1.83116e-05
-2.66811e-05
-8.46553e-06
-6.79095e-06
-7.56929e-06
-1.67386e-05
-1.56184e-05
-1.67463e-05
-2.48939e-05
-1.62906e-05
-5.13286e-06
-4.76207e-06
-2.79737e-05
-2.05933e-05
-1.16116e-05
-2.90301e-05
-1.37551e-05
-1.30042e-06
-1.47557e-05
-2.41086e-05
-2.124e-05
-3.11407e-05
-1.2242e-05
-1.2724e-05
-1.31013e-05
0
-1.89826e-05
-9.54264e-06
-1.74013e-05
-1.5646e-06
-2.46174e-05
-9.19299e-06
-2.06876e-05
-2.90078e-05
-1.1008e-05
-1.09991e-05
-2.19445e-05
-2.20348e-05
-1.36658e-05
-3.00328e-05
-9.43246e-06
-1.20004e-05
-1.19498e-05
-2.19581e-05
-2.18256e-05
-1.79212e-05
-3.00522e-05
-1.0282e-05
-1.02591e-05
-1.04669e-05
-1.03044e-05
-1.00613e-05
-1.00753e-05
-9.74737e-06
-2.17534e-05
-2.16265e-05
-2.08211e-05
-2.07836e-05
-1.34027e-05
-1.30889e-05
-1.27545e-05
-2.96549e-05
-2.92491e-05
-9.0317e-06
-8.50474e-06
0
-6.81742e-06
-1.11669e-05
-1.11782e-05
-2.76611e-06
-1.09124e-05
-1.09285e-05
-2.25911e-06
-3.55948e-07
0
-8.90049e-06
-6.81442e-06
-7.42697e-06
-1.68084e-05
-1.09301e-05
-2.20287e-06
-1.10672e-05
-1.30065e-05
-1.33637e-05
-3.06643e-06
-2.44548e-05
-2.4898e-05
-1.74556e-05
-1.74147e-05
-2.50315e-05
-2.50386e-05
-9.78475e-06
-9.76362e-06
-1.95132e-05
-3.18817e-05
-3.71845e-06
-3.7135e-06
-1.75219e-05
-2.68325e-05
-1.17736e-05
-2.41653e-05
-1.68843e-05
-1.64943e-05
-2.43691e-05
-2.3713e-05
-9.35254e-06
-9.04222e-06
-1.89558e-05
-1.80227e-05
-1.85741e-05
-3.12063e-05
-2.82343e-06
-2.51464e-06
-1.72843e-05
-2.54844e-05
-2.60342e-05
-1.12726e-05
-1.01474e-05
-1.06678e-05
-2.36958e-05
-2.32874e-05
-1.9048e-05
-3.72848e-06
-1.46369e-05
-2.29059e-05
-2.63467e-05
-1.17583e-05
-1.1473e-05
-2.29655e-05
-2.29566e-05
-1.77703e-05
-1.80797e-05
-5.17646e-06
-2.07744e-05
-2.14453e-05
-2.12866e-05
-2.07188e-05
-4.60586e-06
-2.92626e-05
-2.96488e-05
-2.96165e-05
-1.29929e-05
-2.35704e-05
-2.08057e-05
-1.99879e-05
-4.8203e-06
-5.61003e-06
-1.26805e-05
-2.00922e-06
-1.26773e-05
-1.99273e-06
-2.39068e-05
-2.39141e-05
-1.50367e-05
-1.07892e-05
-2.83981e-05
-1.31222e-05
-1.323e-05
-2.35717e-05
-2.35617e-05
-1.39757e-05
-2.03734e-06
-1.37288e-05
-1.62022e-06
-2.41103e-05
-2.37039e-05
-5.17985e-06
-1.97908e-05
-1.17188e-05
-1.98073e-05
-1.14596e-05
-2.07036e-05
-2.207e-05
-2.94911e-05
-2.29865e-05
-2.81288e-05
-3.01871e-05
-1.23809e-05
-1.53623e-05
-3.74223e-06
-4.65486e-06
-2.86523e-05
-1.99474e-05
-1.19177e-05
-1.19929e-05
-1.10798e-05
-1.13116e-05
-1.16335e-05
-1.16132e-05
-1.09809e-05
-1.12525e-05
-1.73504e-05
-1.76914e-05
-8.28355e-06
-2.45033e-05
-2.50185e-05
-1.50239e-05
-3.03895e-06
-1.54158e-05
-1.65901e-05
-1.69542e-05
-1.65271e-05
-1.57216e-05
-2.4036e-05
-2.21997e-05
-2.43878e-05
-2.37928e-05
-8.68835e-06
-1.83215e-05
-2.36879e-05
-2.18611e-05
-8.91911e-06
-9.4382e-06
-9.16341e-06
-8.49968e-06
-1.9226e-05
-1.80055e-05
-1.81835e-05
-1.77021e-05
-2.88311e-05
-2.85309e-05
-3.11959e-06
-2.59708e-06
-2.18619e-06
-2.2511e-06
-1.36986e-05
-1.33297e-05
-2.64443e-05
-2.57511e-05
-2.55764e-05
-1.0063e-05
-1.93424e-05
-2.5146e-05
-2.31532e-05
-1.09837e-05
-1.12758e-05
-1.07168e-05
-1.02165e-05
-1.05603e-05
-1.02746e-05
-2.21947e-05
-2.19618e-05
-2.16332e-05
-2.11603e-05
-2.94627e-05
-2.16141e-05
-2.11694e-05
-3.51396e-05
-3.52844e-05
-1.72791e-05
-1.68325e-05
-9.26008e-07
-7.77e-06
-8.15526e-06
-1.37573e-05
-1.41891e-05
-4.40226e-06
-7.30394e-06
-7.12214e-06
-7.12912e-06
-7.98603e-06
-7.55378e-06
-1.40129e-05
-1.32163e-05
-3.67177e-06
-1.1359e-05
-1.13717e-05
-3.45069e-06
-1.18883e-05
-4.42037e-06
-1.16188e-05
-4.00983e-06
-1.15018e-05
-3.99293e-06
-1.19877e-05
-4.73805e-06
-1.37247e-05
-1.40348e-05
-2.89047e-05
-5.80589e-06
-2.11013e-05
-1.27787e-05
-1.23628e-05
-2.31273e-05
-2.26471e-05
-1.49314e-05
-1.57596e-05
-1.60759e-05
-2.969e-05
-1.56378e-05
-2.46534e-05
-3.01959e-05
-2.72321e-05
-3.05764e-05
-2.78104e-05
-7.37473e-06
-8.21545e-06
-2.24146e-05
-6.97608e-06
-1.75282e-05
-2.28272e-05
-2.32114e-05
-8.45561e-06
-9.09155e-06
-9.68181e-06
-9.52478e-06
-8.64499e-06
-9.18759e-06
-1.46013e-05
-4.43901e-06
-1.52581e-05
-4.97709e-06
-1.59222e-05
-6.58523e-06
-1.44556e-05
-3.14248e-05
-3.15671e-05
-3.04677e-05
-3.10037e-05
-3.09619e-05
-3.042e-05
-2.74837e-05
-1.25881e-05
-1.22538e-05
-1.2035e-05
-1.20459e-05
-2.3151e-05
-2.31314e-05
-2.27177e-05
-2.27087e-05
-1.61492e-05
-1.58816e-05
-1.54386e-05
-1.50314e-05
-1.6292e-05
-2.44325e-05
-3.3178e-05
-2.70636e-05
-3.07451e-05
-2.4009e-05
-3.01686e-05
-2.48798e-05
-1.59535e-05
-2.40559e-05
-2.99364e-05
-2.42994e-05
-8.2506e-06
-7.56776e-06
-8.09814e-06
-7.58586e-06
-7.31389e-06
-1.75579e-05
-2.32805e-05
-2.28605e-05
-2.29174e-05
-2.13111e-05
-6.74402e-06
-1.67886e-05
-2.2085e-05
-2.08762e-05
-2.13695e-05
-1.99242e-05
-2.77667e-05
-2.07741e-05
-2.83018e-05
-2.84464e-05
-1.34973e-05
-1.05769e-05
-2.0709e-05
-2.64242e-05
-1.08718e-05
-2.11294e-05
-1.81024e-05
-1.86613e-05
-8.62233e-06
-9.18756e-06
-1.07953e-05
-1.50142e-05
-1.58774e-05
-5.15426e-06
-1.63139e-05
-5.9633e-06
-1.7724e-05
-1.67247e-05
-8.1527e-06
-8.12124e-06
-9.17602e-06
-2.51014e-05
-2.50694e-05
-1.54005e-05
-4.11803e-06
-1.56743e-05
-4.25507e-06
-7.3481e-07
-1.01753e-05
-3.5141e-05
-3.21666e-05
-3.51495e-05
-1.65841e-05
-1.69337e-05
-1.69366e-05
-1.01262e-05
-1.28736e-06
-2.57467e-05
-1.39235e-05
-4.39514e-06
-1.41782e-05
-1.81603e-05
-8.0756e-06
-8.11818e-06
-1.47878e-06
-1.97643e-05
-1.00955e-05
-9.54359e-06
-9.56597e-06
-1.11683e-06
-2.64994e-05
-1.83348e-05
-1.77453e-05
-1.72391e-05
-1.73562e-05
-1.73815e-05
-1.85238e-05
-1.79293e-05
-1.76838e-05
-3.6662e-05
-3.25944e-05
-3.6164e-05
-3.60961e-05
-1.46419e-05
-1.5019e-05
-1.42804e-05
-1.36787e-05
-1.4122e-05
-1.35472e-05
-2.90327e-05
-2.37096e-05
-1.51805e-05
-2.30886e-05
-2.98768e-05
-2.37317e-05
-2.94021e-05
-2.83612e-05
-2.18142e-05
-2.05061e-05
-5.90974e-06
-1.65393e-05
-2.24919e-05
-2.22226e-05
-2.10447e-05
-1.14279e-05
-2.70235e-05
-1.93739e-05
-9.55612e-06
-2.8222e-06
-2.10974e-05
-2.08533e-05
-1.17129e-05
-5.04931e-06
-1.21244e-05
-8.71915e-06
-8.48415e-07
-3.70749e-07
-2.3916e-06
-2.80327e-05
-1.33995e-05
-2.63623e-05
-1.41488e-06
0
-3.56234e-05
-2.81042e-05
-3.26877e-05
-1.50715e-05
-5.21998e-06
-3.0765e-05
-1.38824e-05
-2.66004e-05
-3.31083e-05
-1.69171e-05
-6.72333e-06
0
-3.30807e-05
-2.47619e-05
-4.43921e-05
-7.40006e-06
-5.76499e-06
-2.75134e-05
-2.21864e-06
-1.81795e-05
-2.84553e-05
-2.21073e-06
-1.72504e-05
-1.50995e-05
-7.82206e-06
-1.97588e-05
-1.90725e-05
-2.51084e-05
-2.61521e-05
-1.30852e-05
-6.24742e-06
-3.20279e-05
-1.55717e-05
-3.40977e-05
-6.27737e-06
-3.78004e-06
-2.94916e-05
-1.87553e-05
-2.72921e-05
-1.25663e-05
-3.22081e-05
-6.45975e-06
-1.60441e-05
-2.62661e-05
-6.59444e-07
-1.17863e-06
-2.24321e-05
-1.77535e-05
-2.29582e-06
-2.62912e-05
-6.83694e-07
-3.14132e-05
-1.44324e-05
-2.53976e-05
-1.59995e-05
-6.99137e-06
-5.98268e-05
-6.98802e-06
-1.50436e-05
-6.14877e-06
-9.32354e-07
0
-2.5478e-05
-5.5962e-06
-1.41895e-05
-3.08074e-05
-2.24968e-05
-1.49248e-05
-1.74177e-05
-2.36382e-05
-2.46625e-05
-1.21555e-05
-1.55901e-05
-7.58807e-06
-2.17139e-05
-1.38067e-05
-7.494e-06
-4.16154e-06
-2.99698e-05
-1.67294e-05
-7.30757e-06
-2.45087e-05
-3.13596e-05
-6.48077e-06
-7.25292e-06
-1.8174e-05
-2.43438e-05
-1.43356e-05
-1.01505e-06
0
-2.57709e-05
-2.05428e-05
-1.97919e-05
-2.65039e-05
-2.67172e-05
-1.40554e-05
-2.72746e-05
-2.65624e-05
-7.22702e-06
-4.20966e-07
-2.49694e-05
-5.91574e-06
-2.35801e-05
-6.10852e-06
-1.68295e-05
-2.59362e-05
-1.40891e-07
-8.63839e-06
-1.85846e-06
0
-2.70576e-05
-1.58585e-06
-3.18622e-05
-1.15873e-06
-1.77181e-06
-2.8077e-05
-3.09964e-05
-1.70448e-05
-6.39918e-06
-1.71909e-05
-1.46602e-05
-6.80772e-06
-2.11487e-05
-1.31092e-05
-6.38305e-06
-2.64847e-05
-6.51947e-07
-6.40467e-06
-7.13773e-06
-1.56536e-05
-7.34068e-06
-2.14174e-05
-1.29706e-05
-6.58839e-06
-8.38437e-06
-3.1531e-05
-2.54136e-05
-1.30594e-05
-2.5405e-05
0
-5.81648e-06
-1.44393e-05
-5.90244e-06
-3.11533e-05
-1.64274e-05
-6.97004e-06
-1.72141e-05
-1.75521e-05
-7.56758e-06
-1.75366e-06
-2.00664e-05
-2.55978e-05
-3.29087e-07
-6.79479e-06
-1.77477e-05
-2.58496e-05
-1.50375e-05
-5.94599e-06
-1.54233e-05
-1.15331e-05
-6.11682e-06
-1.53537e-05
-6.08626e-06
-3.25962e-05
-1.25169e-06
0
-2.54726e-05
-7.17337e-06
-2.39494e-05
0
-4.73914e-06
-3.03532e-05
-2.10429e-05
-5.22052e-06
-3.127e-05
-2.89725e-05
-1.39731e-05
-1.06448e-05
-1.02317e-05
-2.61746e-05
-6.82097e-07
-2.69759e-05
-1.86061e-06
-1.34261e-05
-1.85008e-06
-4.69433e-05
-1.44611e-05
-1.28601e-05
-6.18434e-06
-3.02122e-05
-2.35805e-05
-1.71533e-05
-2.89103e-05
-1.60058e-05
-7.31691e-06
-1.82998e-05
-3.81907e-05
-8.33755e-07
-2.22303e-05
-2.21262e-05
-1.27407e-05
-2.72796e-05
-1.52681e-05
-3.63817e-05
-8.4483e-07
-7.53228e-06
-2.77486e-05
-1.30722e-05
-6.12175e-06
-1.68326e-05
-4.14694e-07
-5.21985e-06
-3.07549e-05
-2.16835e-05
-3.23942e-05
-5.79027e-06
-2.13386e-05
-2.98756e-05
-1.49166e-05
-7.72592e-06
-1.72651e-05
-3.60827e-05
-4.38709e-07
-5.69716e-06
-3.17688e-05
-2.1414e-05
-2.96795e-05
-1.44457e-05
-1.18642e-05
-2.02504e-05
-4.19557e-06
-5.80473e-06
-1.64104e-05
-2.98055e-05
-1.47126e-05
-3.21965e-05
0
-3.5623e-05
-1.65867e-06
-1.0959e-05
-5.76271e-06
-1.64176e-05
-1.44606e-05
-3.09438e-05
-1.47516e-05
-1.38566e-05
-1.23747e-06
-4.16634e-05
-2.78177e-05
-1.02406e-05
-2.71383e-05
-1.05005e-06
-1.03113e-05
-2.26432e-05
-1.38284e-06
-2.73941e-05
-2.44375e-05
-1.25338e-05
-2.64169e-05
-1.14726e-05
-2.7418e-05
-2.01135e-05
-3.70964e-06
-4.06796e-05
-4.21113e-06
-1.22021e-05
-1.04361e-05
-1.12607e-05
-2.68079e-06
-2.90395e-05
-2.73335e-05
-1.85704e-05
-2.65311e-05
-7.77881e-06
-9.2633e-06
-1.93957e-05
-2.58571e-05
-2.53861e-05
-7.03436e-06
-2.20826e-06
-2.8746e-05
-2.11954e-06
-2.75169e-05
-1.04689e-05
-2.63028e-05
-2.17898e-05
-2.93834e-05
-1.53985e-05
-1.35723e-05
-2.70828e-05
-1.42302e-06
-1.91684e-06
-2.80852e-05
-2.8999e-05
-1.47683e-05
-1.27451e-05
-2.39631e-05
-7.98857e-06
-1.80266e-05
-2.44442e-05
-2.82515e-05
-1.34737e-05
-2.40016e-05
-3.02504e-05
-1.21678e-05
-2.28007e-05
-2.95556e-05
-6.74232e-06
-1.76617e-05
-2.40382e-05
-2.92462e-05
-1.30777e-05
-7.07097e-06
-2.2677e-05
-2.47866e-05
-1.44435e-05
-6.75806e-06
-2.46242e-05
-6.2814e-06
-7.45106e-06
-1.88306e-05
-2.52683e-05
-2.51398e-05
-2.56667e-05
-7.42398e-06
-8.19455e-06
-1.88157e-05
-2.65353e-05
-2.02969e-05
-1.24602e-05
-1.24512e-05
-1.30824e-05
-1.42464e-05
-1.37674e-05
-3.20109e-05
-5.39802e-06
-5.8683e-06
-3.1562e-05
-4.23375e-06
-1.28709e-05
-4.70374e-06
-1.33196e-05
-2.75843e-05
-1.38575e-05
-2.7701e-05
-1.30509e-05
-7.50971e-06
-1.641e-05
-2.95144e-05
-2.14018e-06
-1.34904e-05
-2.90873e-05
-2.78284e-05
-2.77204e-05
-1.27685e-05
-7.54152e-06
-1.94553e-05
-8.50584e-06
-2.59491e-07
-2.86417e-05
-1.95896e-06
-1.34436e-05
-2.17417e-05
-5.57989e-06
-1.37577e-05
-2.86457e-05
-1.11724e-05
-2.8307e-05
-2.09385e-06
-7.53371e-06
-2.54545e-05
-2.90313e-05
-1.40535e-05
-2.89878e-05
-1.4043e-05
-2.82314e-05
-1.06616e-05
-2.74986e-05
-1.31641e-06
-2.90216e-05
-1.18694e-05
-2.90606e-05
-2.67684e-06
-2.98073e-05
-2.86407e-05
-2.3553e-05
-2.17902e-05
-2.20783e-05
-2.94105e-05
-1.12177e-05
-2.72319e-05
-8.87487e-07
-2.7252e-05
-1.01674e-05
-6.51987e-06
-3.22644e-05
-4.12224e-05
-6.36695e-06
-2.82296e-05
-1.4721e-06
-2.79795e-05
-1.07293e-05
-6.91285e-06
-5.15914e-06
-1.26348e-05
-1.98385e-05
-1.16468e-05
-1.05629e-05
-2.70042e-05
-1.08383e-05
-5.98939e-06
-3.16473e-05
-3.37285e-05
-5.35622e-06
-7.24298e-06
-3.43945e-05
-6.91543e-06
0
-9.61789e-07
-2.683e-05
-2.84329e-05
-1.12635e-05
-1.20787e-05
-2.10434e-05
-2.84503e-05
-1.18718e-05
-2.27791e-05
-3.80646e-05
-5.35702e-06
-3.01689e-05
-1.45567e-05
-3.24116e-05
-2.13591e-05
-3.91837e-06
-3.158e-05
-2.08729e-05
-1.17194e-05
-1.15425e-06
-2.78376e-05
-2.89307e-05
-1.16702e-05
-1.27552e-05
-2.93898e-05
-1.59325e-06
-1.98222e-05
-1.14761e-05
-2.76085e-05
-1.34303e-05
-2.32722e-05
-3.82186e-05
-3.137e-05
-1.45871e-05
-3.21576e-05
-2.53725e-06
-2.80268e-05
-1.90497e-05
-2.89701e-05
-2.55522e-06
-2.23832e-05
-1.39323e-05
-3.02075e-05
-4.5029e-06
-3.09431e-05
-2.2299e-05
-2.97928e-05
-1.39415e-05
-2.82329e-05
-3.06297e-05
-1.33256e-05
-2.176e-05
-2.29072e-05
-2.13107e-05
-3.0317e-05
-2.03863e-05
-2.17988e-05
-2.04771e-05
-2.73561e-05
-2.93793e-05
-4.17466e-06
-2.98486e-05
-3.15636e-05
-4.2594e-06
-2.10636e-05
-2.78121e-05
-2.99108e-05
-1.19659e-05
-1.27277e-05
-2.10872e-05
-2.98927e-05
-3.73361e-06
-2.94925e-05
-1.28028e-05
-2.04767e-05
-3.4406e-06
-3.1163e-05
-2.74254e-05
-2.18724e-05
-1.417e-05
-2.934e-05
-1.12592e-05
-1.23736e-05
-1.99007e-05
-3.52088e-06
-2.93169e-05
-3.49054e-06
-2.90396e-05
-4.11869e-06
-2.98487e-05
-3.2365e-05
-2.48471e-05
-1.97463e-05
-1.20405e-06
-3.64483e-07
-2.59481e-05
-1.41183e-06
-2.65257e-05
-1.84557e-06
-2.91262e-05
-2.27741e-05
-8.19959e-06
-2.18066e-05
-7.06429e-06
-3.82068e-05
-2.17402e-05
-2.78595e-05
-3.55555e-05
-3.27606e-05
-2.36845e-05
-3.16197e-05
-3.1721e-05
-3.39227e-05
-3.97288e-06
-6.93943e-06
-3.22088e-05
-1.97964e-05
-2.29214e-05
-5.14429e-06
-2.77237e-05
0
-9.49092e-06
0
-8.99989e-06
-1.79398e-05
-8.15938e-06
-7.34208e-06
-3.97085e-05
-7.76551e-06
-1.79442e-05
-7.67096e-06
-1.70486e-05
-7.26614e-06
-1.66374e-05
-2.55524e-05
-1.5492e-05
-2.50342e-05
-6.92822e-06
-2.5538e-05
-1.51728e-05
-2.52156e-05
-1.43525e-05
-2.43712e-05
-2.43525e-05
-1.47021e-05
-2.62054e-05
-2.06362e-05
-6.25003e-06
-3.72483e-05
-7.02212e-06
-3.34281e-05
-3.76992e-05
-6.98424e-06
-3.723e-05
-6.68761e-06
-2.98767e-05
-3.10967e-05
-3.58933e-06
-4.67949e-06
-3.02574e-05
-2.68823e-05
-2.4477e-05
-6.51164e-06
-3.90275e-05
-6.02682e-06
-3.69117e-05
-5.68629e-06
-3.23863e-05
-3.6753e-05
-5.82317e-06
-3.32775e-05
-6.3619e-06
-1.5974e-05
-1.53717e-05
-2.36813e-05
-2.31221e-05
-1.36237e-05
-2.34576e-05
-1.36999e-05
-2.31396e-05
-8.26318e-06
-7.8169e-06
-1.33947e-05
-2.21851e-05
-8.74474e-06
-8.18664e-06
-1.01362e-05
-6.59773e-06
-1.55532e-05
-7.01141e-06
-3.20004e-05
-6.24012e-06
-1.62068e-05
-1.50525e-05
-2.48349e-05
-7.11222e-06
-3.94578e-05
-2.43732e-05
-2.4371e-05
-7.32864e-06
-3.99487e-05
-2.47314e-05
-2.38647e-05
-6.33129e-06
-3.90493e-05
-2.36269e-05
-2.39576e-05
-2.3946e-05
-4.3492e-05
-6.38336e-06
-7.39826e-06
-3.98656e-05
-4.42065e-05
-6.83839e-06
-6.88315e-06
-3.93956e-05
-6.38028e-06
-3.89914e-05
-1.64181e-05
-3.46047e-05
-1.64219e-05
-1.60283e-05
-3.40824e-05
-1.63621e-05
-3.46933e-05
-1.59768e-05
-1.55649e-05
-3.36639e-05
-1.54221e-05
-1.85508e-05
-1.66684e-05
-2.454e-05
-8.0842e-06
-2.35256e-05
-7.88954e-06
-2.47036e-05
-3.81086e-05
-7.35303e-06
-3.33789e-05
-6.87883e-06
-3.76277e-05
-6.66962e-06
-6.07847e-06
-3.19569e-05
-2.31884e-05
-1.77978e-05
-1.55437e-05
-6.93069e-06
-5.41113e-05
-2.42324e-05
-3.94265e-05
-6.9407e-06
-1.45185e-05
-2.23563e-05
-4.69673e-06
-1.41099e-05
-2.13532e-05
-4.24412e-06
-2.81457e-05
-1.7252e-05
-1.1243e-06
-2.75232e-05
-1.73666e-05
-2.83112e-07
-2.69032e-05
0
-2.63625e-05
-2.63835e-05
-1.66007e-05
-1.79662e-05
-1.68468e-05
-2.4952e-05
-2.35082e-05
-2.20893e-05
-2.41255e-05
-5.80413e-06
-2.39369e-05
-1.56046e-05
-3.17028e-05
-5.99908e-06
-1.46686e-05
-2.35327e-05
-4.28454e-05
-2.35774e-05
-3.85152e-05
-5.7252e-06
-2.32157e-05
-3.8505e-05
-5.7224e-06
-1.53186e-05
-3.33144e-05
-1.51145e-05
-3.25879e-05
-3.09712e-06
-2.88176e-05
-2.06005e-05
-1.29757e-05
-3.01851e-05
-2.53694e-06
-2.74982e-05
-2.03098e-05
-3.41017e-05
-5.71459e-06
-2.32309e-05
-3.87601e-05
-5.619e-06
-2.1492e-05
-1.36045e-05
-2.68553e-05
-2.75097e-05
-1.59244e-05
-2.59588e-05
-1.60049e-05
-8.08627e-06
-2.59647e-05
-1.59317e-05
-1.61677e-05
-2.30394e-05
0
-8.37809e-06
-7.75287e-06
-6.86951e-06
-6.453e-06
-6.93412e-06
-2.31686e-05
-2.23342e-05
-2.34873e-05
-6.16178e-06
-2.38223e-05
-2.45045e-05
-8.14377e-06
-2.92387e-05
-2.1999e-05
-1.73801e-05
-1.90701e-05
-2.44251e-05
-1.66354e-05
-1.86096e-05
-1.03923e-05
-2.40159e-05
-2.85421e-05
-2.09296e-05
-1.81895e-05
-1.60737e-05
-2.46766e-05
-1.78032e-05
-1.55119e-05
-2.42275e-05
-1.65814e-05
-2.77928e-05
0
-1.91611e-05
-1.01899e-05
-4.19197e-07
-1.72452e-05
-2.66616e-05
-4.47886e-07
-8.41394e-07
-1.76988e-05
-2.85887e-05
-8.20808e-07
-1.00474e-05
-2.77575e-05
-8.97986e-07
-2.84745e-05
-1.9788e-06
-2.80461e-05
-1.41513e-06
-2.91043e-05
-1.36506e-06
-2.96839e-05
-1.9884e-06
-2.90677e-05
-1.12046e-06
-2.96912e-05
-2.22204e-06
-2.99002e-05
-2.03063e-06
-3.06341e-05
-1.57051e-06
-1.24637e-05
-2.85527e-05
-1.24142e-06
-1.08488e-05
-2.93747e-05
-2.12342e-05
-1.00448e-05
-1.00305e-05
-3.73725e-05
-1.3565e-06
-2.84484e-05
-6.12675e-05
-3.70157e-06
-6.12255e-05
-3.70598e-06
-3.18389e-05
-6.47405e-05
-4.35816e-06
-6.49701e-05
-4.53612e-06
-4.11237e-05
-4.06338e-05
-6.68761e-05
-5.2562e-06
-6.67908e-05
-5.26237e-06
-3.77966e-05
-9.96466e-07
-1.90693e-05
-1.0617e-05
-6.58426e-05
-4.84816e-06
-4.19889e-05
-1.8977e-05
-6.58943e-05
-4.86198e-06
-4.19784e-05
-5.29879e-06
-3.3854e-05
-1.95871e-05
-9.47714e-06
-4.16311e-05
-4.92228e-06
-4.16032e-05
-4.53677e-06
-4.11261e-05
-4.12229e-06
-2.34923e-05
-1.53268e-05
-3.07364e-05
-2.47372e-05
-1.8488e-05
-4.06138e-05
-3.7234e-06
-7.67963e-06
-7.28007e-06
-7.27222e-05
-3.22465e-05
-7.75474e-06
-3.30606e-05
-2.37025e-05
-6.5626e-06
-3.26004e-05
-4.67626e-06
-7.11118e-06
-6.63989e-06
-3.2207e-05
-2.33879e-05
-6.18405e-06
-3.35369e-05
-5.27728e-06
-3.18154e-05
-2.98886e-05
-1.31126e-05
-2.96239e-05
-7.16698e-06
-3.25993e-05
-5.52667e-06
-3.03335e-05
-1.3032e-05
-7.3192e-06
-2.95994e-05
-2.53831e-06
-4.5273e-06
-1.34505e-05
-3.03199e-05
-2.8903e-06
-7.74855e-06
-3.2979e-05
-5.11227e-06
-2.25783e-05
-5.7242e-06
-5.81668e-06
-1.3908e-05
-3.0966e-05
-6.17285e-06
-6.97448e-05
-5.64817e-06
-6.80485e-05
-7.69607e-06
-3.25844e-05
-1.59923e-05
-2.26565e-05
-5.66812e-06
-6.81791e-05
-5.93685e-06
-6.97621e-05
-3.13585e-05
-1.23301e-05
-1.1423e-05
-1.19401e-05
-1.23359e-05
-2.86671e-05
-2.98858e-06
-2.33024e-06
-2.88992e-05
-2.1605e-06
-2.86816e-05
-1.28469e-05
-2.76704e-06
-2.96962e-05
-3.76535e-05
-1.90613e-05
-2.83657e-06
-2.79464e-05
-1.69714e-06
-1.10651e-05
-1.12482e-05
-2.77308e-06
-2.12612e-06
-2.87084e-05
-3.83645e-06
-1.27289e-05
-1.18996e-05
-3.26746e-06
-2.83806e-05
-1.89208e-06
-1.2552e-05
-3.28213e-06
-2.93976e-05
-2.62142e-06
-2.96029e-05
-7.95208e-06
-1.88246e-05
-1.1904e-05
-2.4185e-06
-2.90967e-05
-2.98404e-06
-2.91129e-05
-6.65605e-07
-9.02372e-06
-4.15398e-07
-2.81342e-05
-9.86879e-06
-1.73872e-05
-3.25712e-05
0
-2.73338e-05
-3.3648e-05
-8.30064e-07
-3.17007e-05
-3.71778e-06
-6.1579e-06
-1.43551e-05
0
-2.93152e-05
-2.64551e-05
-8.68232e-06
-2.51579e-05
-4.14152e-07
-1.80127e-05
-3.31158e-05
-2.97703e-05
-2.97684e-05
-2.90751e-05
-2.68133e-05
-2.91643e-05
-2.06859e-05
-1.24382e-05
-3.83163e-05
-1.66619e-06
-2.53352e-05
-1.66321e-05
-2.96889e-05
-2.82124e-05
-3.43753e-05
-1.24332e-06
-2.03759e-05
-1.89279e-05
-3.43134e-05
-1.48281e-06
-2.16193e-05
-1.37009e-05
-2.15823e-05
-9.22025e-06
-1.35723e-05
-3.80597e-06
-3.05468e-05
-1.20697e-05
-2.09834e-05
-4.01557e-06
-2.8751e-05
-2.13062e-06
-2.26043e-06
-2.75308e-05
-1.30526e-05
-1.27152e-05
-3.25611e-06
-2.96927e-05
-8.27796e-06
-1.27526e-05
-3.56521e-06
-3.01083e-05
-2.12473e-05
-8.69852e-06
-3.61954e-06
-3.02714e-05
-8.97217e-06
-1.91696e-05
-3.57854e-06
-8.70764e-06
-3.96874e-06
-3.05949e-05
-9.12919e-06
-9.4328e-06
-2.09348e-05
-1.34443e-05
-4.03128e-06
-3.1087e-05
-9.10789e-06
-3.5239e-05
-2.27814e-06
-1.33881e-05
-2.11873e-05
-1.01014e-05
-1.27058e-05
-4.21474e-06
-1.05142e-05
-4.53496e-06
-3.03151e-05
-1.38957e-05
-2.19824e-05
-1.09958e-05
-3.11522e-05
-4.83296e-06
-1.39095e-05
-4.89685e-06
-3.1356e-05
-2.35719e-05
-3.18719e-05
-5.02837e-06
-1.48056e-05
-2.31353e-05
-8.38745e-06
-6.94417e-06
-2.43505e-05
-4.39268e-05
-6.84096e-06
-3.54538e-05
-2.65568e-06
-2.94365e-06
-3.05827e-05
-3.31205e-05
-5.16017e-07
-1.49523e-05
-4.90307e-06
-3.23027e-05
-1.08474e-05
-2.11984e-05
-2.3073e-05
-7.32e-06
-4.44743e-05
-3.00519e-05