# vtk DataFile Version 2.0
Unstructured Grid by M++
ASCII
DATASET UNSTRUCTURED_GRID
POINTS 4072 float
  0.546875   0.656250 0
  0.546875   0.578125 0
  0.718750   0.625000 0
  0.656250   0.875000 0
  0.734375   0.609375 0
  0.671875   0.859375 0
  0.718750   0.609375 0
  0.656250   0.859375 0
  0.734375   0.593750 0
  0.671875   0.843750 0
  0.578125   0.984375 0
  0.640625   0.734375 0
  0.546875   0.593750 0
  0.593750   0.984375 0
  0.656250   0.734375 0
  0.640625   0.984375 0
  0.703125   0.734375 0
  0.546875   0.781250 0
  0.609375   0.531250 0
  0.546875   0.796875 0
  0.968750   0.531250 0
  0.609375   0.546875 0
  0.890625   0.984375 0
  0.953125   0.734375 0
  0.578125   0.593750 0
  0.515625   0.843750 0
  0.953125   0.625000 0
  0.890625   0.875000 0
  0.781250   0.578125 0
  0.718750   0.828125 0
  0.734375   0.812500 0
  0.640625   0.968750 0
  0.703125   0.718750 0
  0.671875   0.937500 0
  0.734375   0.687500 0
  0.671875   0.953125 0
  0.734375   0.703125 0
  0.656250   0.953125 0
  0.718750   0.703125 0
  0.656250   0.968750 0
  0.718750   0.718750 0
  0.578125   0.765625 0
  0.562500   0.765625 0
  0.578125   0.750000 0
  0.921875   0.953125 0
  0.984375   0.703125 0
  0.921875   0.937500 0
  0.984375   0.687500 0
  0.562500   0.953125 0
  0.578125   0.578125 0
  0.515625   0.828125 0
  0.562500   0.578125 0
  0.656250   0.937500 0
  0.718750   0.687500 0
  0.640625   0.937500 0
  0.703125   0.687500 0
  0.640625   0.953125 0
  0.703125   0.703125 0
  0.546875   0.765625 0
  0.609375   0.515625 0
  0.531250   0.765625 0
  0.593750   0.515625 0
  0.890625   0.937500 0
  0.953125   0.687500 0
  0.859375   0.750000 0
  0.796875   1.000000 0
  0.984375   0.734375 0
  0.921875   0.984375 0
  0.968750   0.734375 0
  0.906250   0.984375 0
  0.984375   0.718750 0
  0.921875   0.968750 0
  0.593750   0.546875 0
  0.531250   0.796875 0
  0.593750   0.531250 0
  0.531250   0.781250 0
  0.953125   0.515625 0
  0.578125   0.562500 0
  0.515625   0.812500 0
  0.578125   0.546875 0
  0.515625   0.796875 0
  0.593750   0.609375 0
  0.531250   0.859375 0
  0.578125   0.609375 0
  0.515625   0.859375 0
  0.859375   0.703125 0
  0.796875   0.953125 0
  0.828125   0.750000 0
  0.765625   1.000000 0
  0.828125   0.734375 0
  0.765625   0.984375 0
  0.921875   0.796875 0
  0.984375   0.546875 0
  0.562500   0.812500 0
  0.906250   0.796875 0
  0.921875   0.781250 0
  0.812500   0.765625 0
  0.750000   1.000000 0
  0.812500   0.750000 0
  0.859375   0.531250 0
  0.796875   0.781250 0
  0.796875   0.765625 0
  0.781250   0.781250 0
  0.875000   0.578125 0
  0.812500   0.828125 0
  0.937500   0.734375 0
  0.875000   0.984375 0
  0.765625   0.578125 0
  0.703125   0.828125 0
  0.781250   0.562500 0
  0.718750   0.812500 0
  0.750000   0.578125 0
  0.687500   0.828125 0
  0.765625   0.562500 0
  0.703125   0.812500 0
  0.625000   0.953125 0
  0.687500   0.703125 0
  0.609375   0.968750 0
  0.671875   0.718750 0
  0.609375   0.953125 0
  0.671875   0.703125 0
  0.625000   0.875000 0
  0.687500   0.625000 0
  0.609375   0.890625 0
  0.671875   0.640625 0
  0.625000   0.890625 0
  0.687500   0.640625 0
  0.609375   0.906250 0
  0.671875   0.656250 0
  0.937500   0.578125 0
  0.875000   0.828125 0
  0.921875   0.593750 0
  0.859375   0.843750 0
  0.921875   0.578125 0
  0.859375   0.828125 0
  0.937500   0.640625 0
  0.875000   0.890625 0
  0.562500   0.703125 0
  0.546875   0.718750 0
  0.546875   0.703125 0
  0.531250   0.718750 0
  0.906250   0.968750 0
  0.968750   0.718750 0
  0.906250   0.953125 0
  0.968750   0.703125 0
  0.906250   0.937500 0
  0.968750   0.687500 0
  0.890625   0.968750 0
  0.953125   0.718750 0
  0.890625   0.953125 0
  0.953125   0.703125 0
  0.593750   0.765625 0
  0.609375   0.750000 0
  0.593750   0.750000 0
  0.937500   0.953125 0
  0.843750   0.921875 0
  0.906250   0.671875 0
  0.828125   0.937500 0
  0.890625   0.687500 0
  0.546875   0.750000 0
  0.546875   0.734375 0
  0.531250   0.750000 0
  0.953125   0.671875 0
  0.890625   0.921875 0
  0.531250   0.671875 0
  0.515625   0.687500 0
  0.875000   0.921875 0
  0.937500   0.671875 0
  0.515625   0.937500 0
  0.859375   0.937500 0
  0.921875   0.687500 0
  0.859375   0.921875 0
  0.921875   0.671875 0
  0.843750   0.937500 0
  0.906250   0.687500 0
  0.921875   0.703125 0
  0.859375   0.953125 0
  0.937500   0.703125 0
  0.875000   0.953125 0
  0.937500   0.687500 0
  0.875000   0.937500 0
  0.828125   0.656250 0
  0.968750   0.593750 0
  0.968750   0.578125 0
  0.906250   0.812500 0
  0.953125   0.593750 0
  0.953125   0.578125 0
  0.875000   0.843750 0
  0.937500   0.593750 0
  0.953125   0.656250 0
  0.531250   0.921875 0
  0.890625   0.906250 0
  0.953125   0.640625 0
  0.890625   0.890625 0
  0.937500   0.656250 0
  0.875000   0.906250 0
  0.718750   0.593750 0
  0.656250   0.843750 0
  0.734375   0.578125 0
  0.671875   0.828125 0
  0.718750   0.578125 0
  0.656250   0.828125 0
  0.734375   0.562500 0
  0.671875   0.812500 0
  0.578125   0.890625 0
  0.640625   0.640625 0
  0.593750   0.890625 0
  0.656250   0.640625 0
  0.578125   0.906250 0
  0.640625   0.656250 0
  0.578125   0.953125 0
  0.640625   0.703125 0
  0.593750   0.953125 0
  0.656250   0.703125 0
  0.578125   0.968750 0
  1.000000   0.703125 0
  0.640625   0.718750 0
  0.593750   0.968750 0
  0.656250   0.718750 0
  0.734375   0.515625 0
  0.671875   0.765625 0
  0.968750   0.765625 0
  0.984375   0.750000 0
  0.843750   0.750000 0
  0.781250   1.000000 0
  0.859375   0.734375 0
  0.796875   0.984375 0
  0.843750   0.734375 0
  0.781250   0.984375 0
  0.859375   0.718750 0
  0.796875   0.968750 0
  0.843750   0.718750 0
  0.781250   0.968750 0
  0.828125   0.640625 0
  0.765625   0.875000 0
  0.828125   0.625000 0
  0.875000   0.546875 0
  0.812500   0.796875 0
  0.812500   0.781250 0
  0.796875   0.796875 0
  0.875000   0.609375 0
  0.812500   0.859375 0
  0.968750   0.796875 0
  0.546875   0.687500 0
  0.546875   0.671875 0
  0.531250   0.687500 0
  0.984375   0.796875 0
  1.000000   0.796875 0
  0.562500   0.796875 0
  0.578125   0.781250 0
  0.625000   0.531250 0
  0.562500   0.781250 0
  0.578125   0.640625 0
  0.515625   0.890625 0
  0.562500   0.640625 0
  0.578125   0.625000 0
  0.515625   0.875000 0
  0.875000   0.703125 0
  0.812500   0.953125 0
  0.750000   0.609375 0
  0.687500   0.859375 0
  0.765625   0.593750 0
  0.703125   0.843750 0
  0.750000   0.593750 0
  0.687500   0.843750 0
  0.625000   0.984375 0
  0.687500   0.734375 0
  0.625000   0.968750 0
  0.687500   0.718750 0
  0.609375   1.000000 0
  0.671875   0.750000 0
  0.609375   0.984375 0
  0.671875   0.734375 0
  0.625000   0.906250 0
  0.687500   0.656250 0
  0.609375   0.921875 0
  0.671875   0.671875 0
  0.625000   0.921875 0
  0.687500   0.671875 0
  0.609375   0.937500 0
  0.671875   0.687500 0
  0.625000   0.937500 0
  0.687500   0.687500 0
  0.968750   0.656250 0
  0.906250   0.906250 0
  0.984375   0.640625 0
  0.921875   0.890625 0
  0.968750   0.640625 0
  0.906250   0.890625 0
  0.984375   0.625000 0
  0.921875   0.875000 0
  0.968750   0.625000 0
  0.906250   0.875000 0
  0.953125   0.765625 0
  0.906250   1.000000 0
  0.968750   0.750000 0
  0.937500   0.765625 0
  0.953125   0.750000 0
  0.953125   0.796875 0
  0.937500   0.796875 0
  0.953125   0.781250 0
  1.000000   0.531250 0
  0.937500   0.781250 0
  0.984375   1.000000 0
  1.000000   1.000000 0
  1.000000   0.984375 0
  0.890625   0.765625 0
  0.718750   0.515625 0
  0.656250   0.765625 0
  0.890625   0.796875 0
  0.890625   0.781250 0
  0.562500   0.671875 0
  0.921875   0.656250 0
  0.578125   0.656250 0
  0.515625   0.906250 0
  0.562500   0.656250 0
  0.890625   0.750000 0
  0.828125   1.000000 0
  0.875000   0.734375 0
  0.812500   0.984375 0
  0.546875   0.968750 0
  0.625000   0.718750 0
  0.171875   0.656250 0
  0.750000   0.046875 0
  0.062500   0.609375 0
  0.046875   0.609375 0
  0.734375   0.031250 0
  0.046875   0.593750 0
  0.718750   0.125000 0
  0.703125   0.109375 0
  0.687500   0.125000 0
  0.500000   0.937500 0
  0.437500   0.765625 0
  0.359375   0.625000 0
  0.296875   0.875000 0
  0.343750   0.609375 0
  0.281250   0.859375 0
  0.250000   0.515625 0
  0.484375   0.531250 0
  0.468750   0.515625 0
  0.468750   0.656250 0
  0.453125   0.671875 0
  0.031250   0.937500 0
  0.390625   0.921875 0
  0.250000   0.968750 0
  0.765625   0.234375 0
  0.750000   0.093750 0
  0.750000   0.078125 0
  0.000000   0.515625 0
  0.500000   0.765625 0
  0.328125   0.718750 0
  0.343750   0.703125 0
  0.328125   0.687500 0
  0.312500   0.703125 0
  0.343750   0.781250 0
  0.406250   0.531250 0
  0.015625   0.531250 0
  0.062500   0.593750 0
  0.750000   0.015625 0
  0.062500   0.578125 0
  0.046875   0.578125 0
  0.734375   0.000000 0
  0.296875   0.687500 0
  0.484375   0.843750 0
  0.031250   0.593750 0
  0.718750   0.015625 0
  0.031250   0.578125 0
  0.468750   0.828125 0
  0.703125   0.000000 0
  0.750000   0.234375 0
  0.453125   0.750000 0
  0.218750   0.687500 0
  0.421875   1.000000 0
  0.000000   0.218750 0
  0.484375   0.750000 0
  0.468750   0.765625 0
  0.468750   0.875000 0
  0.046875   0.093750 0
  0.296875   0.781250 0
  0.437500   0.984375 0
  0.015625   0.203125 0
  0.500000   0.796875 0
  0.078125   0.015625 0
  0.484375   0.875000 0
  0.484375   1.000000 0
  0.062500   0.218750 0
  0.468750   0.859375 0
  0.484375   0.781250 0
  0.062500   0.000000 0
  0.484375   0.921875 0
  0.062500   0.140625 0
  0.453125   1.000000 0
  0.031250   0.218750 0
  0.312500   0.562500 0
  0.250000   0.812500 0
  0.468750   0.937500 0
  0.046875   0.156250 0
  0.343750   0.593750 0
  0.375000   0.562500 0
  0.312500   0.812500 0
  0.203125   0.671875 0
  1.000000   0.234375 0
  0.375000   0.593750 0
  0.312500   0.796875 0
  0.484375   0.890625 0
  0.062500   0.109375 0
  0.296875   0.796875 0
  0.187500   0.656250 0
  0.984375   0.218750 0
  0.359375   0.546875 0
  0.375000   0.625000 0
  0.359375   0.609375 0
[...]
POINT_DATA 4072
SCALARS scalar_value float 1
LOOKUP_TABLE default
-0.0054827
-0.00459746
0.000783576
4.01424e-05
0.00175355
-1.64267e-05
-0.00160334
4.86358e-06
-0.00158153
7.4945e-05
-8.02741e-06
-0.000108021
-0.00711688
4.02431e-06
0.000394227
-4.68611e-06
-5.74963e-05
0.000230357
-0.00910128
-7.44346e-05
-3.01801e-05
-0.00648742
-2.79471e-06
4.80155e-05
-0.00196842
-2.13704e-05
-1.46645e-05
9.51265e-06
-0.00024629
-7.68193e-06
4.3034e-06
-8.23447e-06
-5.5395e-05
-4.1882e-06
0.000127467
5.78069e-06
5.10733e-05
-2.07641e-06
-8.70564e-05
9.83368e-06
3.57663e-05
-7.70001e-05
0.000145835
-8.37962e-05
-4.55603e-07
1.90887e-05
1.44029e-06
-2.83585e-05
8.63286e-06
0.00393827
5.77802e-05
0.00594113
1.30284e-05
-0.000106348
-1.5864e-05
-5.00163e-05
4.83239e-06
0.000171994
-0.00030934
-0.00707464
0.000257124
0.0224848
-3.39871e-06
-5.64748e-05
2.78741e-05
0
1.22508e-05
-5.02787e-07
-7.41876e-05
-1.00426e-07
-2.59268e-05
-1.45482e-06
0.0166633
-8.38653e-05
0.0169147
-0.000124708
-2.4587e-05
0.00503514
-4.99698e-06
0.00959147
8.91952e-05
0.0114656
-4.52511e-05
-0.00311297
0.000104477
0.000157109
3.97777e-06
1.91121e-05
0
-6.85396e-05
3.98657e-06
-7.33905e-05
-1.61914e-05
-1.69615e-05
6.80452e-05
-1.8697e-05
1.06419e-05
0
-2.16896e-07
-5.5357e-05
4.03185e-06
1.02453e-06
-0.000109936
-6.62175e-05
2.44963e-05
-5.27513e-05
-1.70111e-06
0.000546582
-2.56532e-05
6.02674e-05
2.68419e-05
-0.000417124
5.25936e-05
-0.000275823
-2.83686e-05
-2.44411e-06
-9.32756e-05
1.89883e-06
0.000183996
-3.84789e-06
0.00022782
2.23023e-05
0.000303457
1.50843e-05
0.000110822
1.36555e-06
0.000248247
-3.35163e-05
0.000243285
-6.87137e-05
-8.8927e-06
-0.000106589
1.0995e-05
3.69066e-05
-6.72398e-06
-3.82371e-06
-1.48256e-07
2.78607e-05
-0.000637113
0.000530327
0.000413278
2.04556e-06
6.32245e-05
-2.67712e-06
-6.87072e-05
2.74457e-06
4.64867e-05
2.92316e-08
-6.78634e-05
-1.12412e-06
5.70523e-05
0.000120811
-0.000639677
0.000643916
-1.97094e-06
1.11267e-06
-8.08033e-05
-3.5035e-07
-0.000147509
0.000295063
0.000111298
-0.000502134
4.27732e-05
3.41889e-07
-0.000347091
-0.00128062
-2.69204e-06
-3.68815e-05
3.86242e-05
2.81597e-07
-0.000165954
1.92623e-06
2.97024e-05
4.70671e-07
0.000156516
4.9674e-05
8.13465e-07
-6.61022e-05
-8.27481e-07
0.000111334
-1.24595e-06
-0.00038791
-5.20707e-06
-2.07224e-05
0.000150748
-1.07424e-06
7.01731e-05
3.18196e-09
5.80569e-06
-3.42859e-05
-1.18978e-05
-2.65745e-07
3.57756e-05
-4.82478e-06
7.67199e-05
-1.84282e-06
0.00185017
-3.65766e-05
0.00123469
-7.67052e-05
-0.00149815
0.000123235
-0.000258841
5.78948e-05
4.03997e-05
0.00119626
-3.54191e-05
0.000653298
-3.12379e-05
-0.000666811
-7.61636e-06
-0.000662061
7.0926e-06
0.000182901
-5.21583e-06
-7.29126e-05
0.000678319
-2.20322e-06
-0.000542044
0.00172087
3.18029e-05
-5.43603e-05
-1.13082e-05
-3.40064e-05
0
-5.23897e-06
4.8361e-06
4.90476e-05
-3.46588e-06
-7.17742e-05
1.80028e-06
3.26394e-05
-4.11493e-07
0.000265956
-9.41601e-05
-0.000271217
-0.000105394
2.11673e-05
1.22116e-05
-2.48902e-05
-7.80536e-05
8.68007e-06
-2.29883e-05
0.000436135
-0.00116558
0.0011981
-1.08519e-05
-2.10077e-05
0.000194538
9.75673e-05
0.015099
-0.000190268
-0.00879993
6.50725e-05
0.00427273
-0.00616079
-6.35343e-05
-0.000156725
8.76429e-07
-0.00123216
3.37269e-05
-0.000527953
4.84757e-05
0.00071928
-6.54485e-05
9.19399e-06
0.000236011
5.08927e-06
6.48517e-07
0
0.000217964
-8.78137e-06
-0.000268254
1.99548e-05
-0.000278149
1.94831e-05
0.00025916
-1.14513e-05
0.000204041
-1.58576e-05
-0.000392172
2.222e-05
0.000148733
2.54656e-05
-5.09126e-06
-4.60712e-06
-5.12955e-06
-3.60953e-05
9.57707e-06
-3.93262e-06
-1.60859e-05
-9.06718e-07
2.93391e-06
6.83429e-06
0
5.97832e-05
-1.35247e-05
-3.66331e-05
-1.54462e-05
-1.35807e-05
1.31086e-05
-4.99825e-05
1.92715e-05
0
0
-9.15968e-07
-1.72708e-05
-0.000111275
-0.000104109
-4.045e-05
4.89164e-05
-1.64334e-05
-0.00014113
-0.00732271
1.28584e-05
0.00994364
1.24129e-05
0
-3.05669e-05
-1.50658e-06
9.95175e-06
-0.000538099
-0.000174995
-0.00141405
7.14792e-06
-8.37053e-06
0.0467073
2.65043e-05
0.170351
0.196469
0.114132
1.31976e-05
-0.000494923
-0.00130033
2.17133e-06
0.00143366
2.69847e-05
0.000321952
0.00204622
-0.00104867
-0.000182606
0.00174016
-2.71674e-07
1.19301e-05
2.45805e-06
0.000698861
-0.00227004
-0.000845643
2.31064e-06
5.67768e-05
0.00011134
-5.21956e-05
4.13624e-05
-0.000212113
0.000161745
0.0375214
1.37063e-06
-2.70109e-05
-0.00445834
3.3728e-05
-2.50352e-05
0.0335405
0.000150041
0.000120901
-2.86778e-05
0.135758
1.99891e-05
-6.3932e-05
0.182321
0.00505171
-0.000275799
0.000142466
0
1.99392e-06
-0.000198638
-0.00011523
-1.25998e-05
-0.000116556
-5.81018e-05
5.48914e-06
6.05122e-06
7.89273e-06
6.81727e-05
-1.5069e-06
0
-0.00127433
3.73978e-05
4.91496e-05
-0.000118402
1.29837e-06
0.00102778
0
0.000124255
-0.00213864
5.29542e-05
-1.29662e-05
-0.000155161
2.03009e-05
-0.00367497
8.20518e-05
0.000550835
-4.93072e-05
0.000285924
-5.07102e-05
3.46432e-05
0.000155841
2.74581e-05
0.000175387
5.67256e-05
0.00206744
0.000717773
-0.000972418
-0.00289002
1.78839e-05
-9.68064e-06
-0.000275474
-7.8919e-05
7.19934e-07
-0.000175657
6.26615e-05
-0.00219844
-1.13603e-05
0.0127679
4.24776e-05
4.74246e-06
-4.85991e-05
2.84332e-05
-0.00185248
-6.42366e-06
-2.17552e-05
6.60182e-05
0.000194722
5.24982e-05
0.00802146
7.58633e-05
0.000245698
-3.13905e-05
0.00639569
-4.847e-05
1.31364e-05
4.09739e-05
2.49789e-05
0.16648
1.37905e-05
2.20492e-06
0.00109409
0.188418
-0.000544438
0.0662831
2.16623e-05
6.89037e-06
4.93418e-05
-0.000793941
0.056594
1.23919e-05
0.0528828
2.34796e-05
5.57752e-05
-4.21047e-05
-1.85494e-05
3.71398e-05
4.99106e-05
0.0220738
0.188763
-0.000101356
0.0659667
0.181907
0.0627173
2.04095e-05
5.7632e-06
3.04526e-05
-0.000217987
0.000139347
-7.7229e-05
2.59837e-05
-1.43374e-06
3.92126e-05
0.000111218
0.000161459
-2.62119e-05
6.82372e-05
0.00018145
-5.31457e-05
7.29376e-05
-6.41641e-06
-0.000248464
-9.32338e-06
4.76036e-05
-0.00014469
2.56282e-07
0.000927443
-7.20581e-06
0
5.88092e-06
-0.00126705
2.32674e-07
0
9.54037e-06
5.71161e-06
0.00128583
4.4566e-07
7.18551e-07
0.000965201
0
0
-3.52105e-06
-0.000164717
6.24793e-06
0.000354025
0.200366
1.14893e-07
2.56262e-06
0.00132878
0.0206816
-2.02043e-05
6.77174e-08
-0.00219221
-0.000598333
0.000112986
2.05095e-07
-0.00147245
1.73922e-05
0.205904
0.00136526
3.07472e-06
-0.00172954
0.126559
-1.70171e-05
-0.000199801
-0.000264995
3.73785e-05
-0.00526981
-1.16147e-05
1.39459e-06
0.00174177
-0.00219881
3.56145e-05
-1.28962e-06
4.55516e-07
-4.70182e-07
4.40719e-06
0.0531681
6.44725e-05
0
-0.00169939
0.00141678
-5.80675e-05
0.00884535
0.00533612
1.0806e-05
0.00903119
-8.39538e-05
0.000224197
0.0164187
-0.0044318
0.0048417
-0.00440992
-0.00402179
4.387e-06
0.000114848
0.0110752
0.00549579
-1.75417e-05
-4.64971e-05
-0.00235472
0.00127107
-8.29461e-05
0.000166056
0.018036
-3.70049e-06
-0.000458418
0.0961312
-2.83848e-05
2.91372e-05
-1.63724e-05
0.0029868
1.0288e-05
0.00194677
0.00373616
0.000284856
-1.01637e-05
0.0554053
7.06755e-05
-3.57675e-05
-0.000676367
-0.00273482
0.00460431
-0.00372942
-9.49331e-06
1.71805e-05
-2.85332e-05
-3.75246e-05
1.84848e-05
0.153013
4.09832e-06
0.0994357
0.0876881
-7.14857e-06
-0.00668902
-5.05901e-05
-8.43119e-05
-2.9276e-05
-0.000126061
-0.00020439
5.08014e-05
0.0708219
0.034905
-1.06915e-05
0.000451593
0.0291421
-5.71453e-05
0.000196947
-0.00564862
0.0447407
-8.30801e-07
0.000333845
1.95845e-05
0.000438058
0.000773886
2.46204e-06
0.00248602
-1.49692e-05
0.000322344
-0.00140971
0.00126363
-0.000596447
-4.12952e-05
0.185096
0.00856774
5.31838e-05
0.000378127
-4.55352e-06
0.000497196
-0.0029948
0.00068828
-3.23808e-05
0.0908226
0.00129735
1.03439e-05
-6.68734e-05
-1.92702e-05
-3.23345e-05
0.000121078
-1.43269e-06
-9.2076e-05
-5.9658e-05
0.000190523
0.00363796
0.0370568
6.75034e-05
-3.79204e-05
-8.30727e-06
0.0118206
7.41253e-06
3.49093e-05
5.27061e-05
-1.34357e-05
0.00901731
-1.80823e-05
-0.00579338
2.05346e-05
1.62491e-05
-0.00298416
0.000834024
1.20671e-05
-0.000240858
-4.54906e-06
2.22521e-06
-1.48322e-05
0.178584
-5.73372e-06
0.00139972
0
0.188424
1.67688e-05
-0.00593291
-0.00131771
0.12579
-2.01015e-05
6.25321e-05
-3.78514e-05
0.000699897
-1.35013e-05
-0.000198955
0.00527754
-1.18517e-06
-0.000419888
-1.59864e-06
0.000427433
0.00019105
6.44265e-05
-0.00120577
-0.00481387
0
0.0216047
-0.0163688
-4.49212e-05
0.0203092
3.19676e-05
-0.0106477
-0.0171273
3.08681e-05
0.00186841
0.000699377
0.000103742
-1.2386e-05
0.00298513
2.74035e-07
0.000220618
-0.0052783
-3.40196e-06
-0.00273751
6.33223e-06
-2.78795e-05
-0.000617904
-0.00592559
-3.06924e-07
0.0215081
0.0231123
-0.000928434
0.000146485
7.33087e-05
0.000458844
0.0580155
-5.56003e-05
7.68773e-06
0.0346399
0.189427
-5.88116e-05
0.0357734
1.05167e-05
1.0988e-05
-7.09012e-05
0.18754
-6.05647e-06
0.000194334
0.000147009
-0.000940336
3.48165e-05
0.0360578
0.184696
-0.000105711
0.0394982
-1.90481e-06
0.18085
0.210872
7.43654e-07
-0.00688113
0.22985
0.0587231
0
0.203535
0.0299481
-0.00232974
0.238229
1.6078e-06
2.16883e-05
-1.63278e-05
0.0178836
1.9866e-05
-2.80942e-05
1.94275e-08
1.32884e-05
1.32236e-05
-2.96371e-05
0.00086516
-1.88632e-06
8.02317e-06
4.06117e-06
6.7717e-06
0.0153435
-0.000620169
-0.000687623
9.07775e-05
-7.25153e-05
0.000278209
0.08764
1.89704e-05
5.72581e-05
0.000220872
-1.53536e-05
-7.05143e-05
6.62062e-05
0.000102985
-0.000159308
-3.82422e-05
0.00011023
0.000131285
2.81967e-06
0.000667357
0.00391298
0.00791801
8.96124e-06
6.7306e-06
-0.000101298
3.59905e-06
0.00172501
0.169614
0.128661
0.170246
8.87912e-05
9.96676e-05
0.122631
0.0488031
0.287206
0.0181386
-0.000254801
0.199826
1.01295e-06
-0.000722256
4.76719e-06
0.000977444
0.000905944
0.185641
-1.66081e-06
0.00159427
0.184511
-1.64034e-05
0.0137458
-0.0014087
0.147405
2.85206e-06
0.0246092
4.33463e-06
0.138433
-3.1692e-06
-1.02546e-05
-0.00534254
-0.000487356
-0.0109715
-1.93529e-05
0.0143386
0.0338508
1.10059e-05
-0.00274987
1.5441e-05
6.91697e-07
-0.0120718
-2.98052e-07
0.00018953
0.000588952
-0.00672001
-3.68686e-06
-0.00368411
-0.00346683
5.7453e-05
1.64009e-05
0.184256
-1.12013e-05
0.0363523
0.154144
0.12382
0.00696079
0.0148434
9.74153e-05
4.4779e-05
0.0256211
0.181943
0.0284307
0.192953
1.1338e-06
-2.67694e-06
0.00460807
0.00138459
0.168166
1.03457e-06
0.0101376
0.156122
5.99935e-07
-3.80754e-06
0.0294578
-0.0038713
0.127825
3.50381e-06
0.0445786
3.06327e-06
-9.3901e-06
-0.000103616
0.115877
0.0011436
0.000463095
5.19688e-05
0.00123482
0.000299065
-5.22387e-05
-0.000135817
-7.56585e-06
2.88458e-05
-0.000295063
-0.00061903
-4.19879e-05
8.73112e-05
0.000163906
-2.35144e-05
0.0046718
-0.0130045
-1.07891e-05
-0.000238171
-6.42752e-05
-0.00268804
0.00219177
-0.0141444
-0.00331194
-0.00399615
6.16827e-06
0.00596991
-6.35019e-06
-3.19825e-07
-4.98006e-06
0.000535961
-0.00985587
0.0940224
0.157623
7.79336e-05
-4.04588e-05
2.14861e-05
0.00202449
0.192582
2.98843e-05
0.00215238
0.140872
-2.48029e-05
-0.0149113
-0.00536019
-0.0159436
6.30031e-06
0.00149658
-7.42866e-05
-1.59258e-06
0.000180363
-7.67031e-05
0.000215119
0
-6.30186e-05
0.00468826
0.000108371
0.253183
0
-2.10413e-05
-0.00752723
-0.000100292
0.147328
0.00720073
0.248368
-4.34724e-05
6.67572e-05
0.00124893
0.000163845
3.0558e-05
8.4974e-05
0.000140146
-1.42932e-05
0.000267069
-0.000168103
-0.000103485
-0.000163412
0.000174014
-1.08999e-05
0.164506
0.18149
-4.08938e-06
-0.000135176
0.281712
0.0398548
-6.66077e-05
0.176295
0.18235
2.55115e-05
-2.10895e-05
0.139384
0.00215155
0.0310768
-0.014193
0.0327989
0.199958
-1.42456e-05
0.098247
-0.0025079
0.000158856
-0.000140769
-0.00220643
0
0.00201801
0.00441262
0.000864964
-2.19034e-05
-0.00215216
0.00118442
0.000207108
-0.00181409
-0.000348643
-0.000241495
5.79238e-05
-2.42417e-05
-5.54976e-07
0.0561825
-3.36284e-06
0.237516
-2.55086e-05
1.75296e-05
0.0669167
0.00320254
0.212674
-4.88063e-06
0.140831
0.154276
0.164619
0
-7.41281e-06
0.00167991
0.00150742
0.00023519
0.00127344
1.29714e-07
-0.00924213
0.000905903
-0.0046526
0.127694
0.17225
0
0.176184
0.192822
9.16583e-07
5.04346e-06
7.34312e-05
-0.000351172
4.46898e-05
0.000598311
0.00038585
-9.68547e-06
-2.81645e-05
-0.00119969
4.74982e-05
0.000194271
0.122822
6.51227e-05
5.07031e-07
-2.51999e-06
-0.000156371
1.07831e-06
0.187416
-6.97134e-05
4.09382e-05
0.188114
0.00258413
0.182235
-1.33218e-05
0.00483258
0.135948
-6.45323e-05
1.94229e-05
0.131483
-1.36301e-05
0.0280802
0.137193
0.167015
-1.16396e-05
0.0693428
0.135206
0.118494
0.147546
2.2606e-06
2.15118e-05
-0.00291562
6.57592e-05
0.000314253
0.000192333
0.00467101
0.215691
0.22973
0.0329281
-0.00180195
-0.000112364
-0.000936747
0.196045
0.0146184
-0.000715755
0.000894606
8.61801e-05
1.56541e-05
0.00201097
0.2317
0.0304794
0.209025
0.0292603
-0.00128713
0.000863495
0
-0.00452875
0.00058574
0.147768
-0.000154859
1.60999e-06
0.000565173
-0.000262656
0.0104324
0.129814
0.00322233
8.71718e-05
0.00088241
-4.40847e-06
0.00402408
0.00087407
-2.29108e-05
0.0019848
0.218225
-5.1428e-06
-7.79643e-06
0.0276876
-0.00105497
0.000755068
-0.00156365
0.16905
0.160388
9.17443e-06
0.0977186
0.118631
-0.000169149
9.02927e-06
0.00112065
7.9095e-05
9.63644e-05
1.03507e-05
-0.00208727
0.211825
-1.24924e-05
-0.0181337
0.167909
1.82082e-07
-0.00851176
0.000731474
-0.000576071
-0.000250314
8.89179e-05
0.155196
2.26836e-06
0.0149301
-0.000318586
1.70652e-06
-6.31353e-05
-0.000636804
-1.52334e-05
6.54929e-05
-0.00050779
0.131287
0.0087765
0.00011444
0.160628
3.49342e-07
0.0180174
0.00123685
0.00313031
-0.00132207
0.00316743
5.28588e-05
0.00114744
-0.000381471
0.000650055
-0.000764385
0.0226409
0.159179
-2.42343e-06
8.98486e-05
4.50342e-05
-6.52562e-05
2.8721e-05
1.71192e-05
5.36029e-05
-8.15918e-06
-9.59297e-05
6.34251e-05
2.24015e-05
6.551e-06
-3.33736e-06
0.00987877
-0.00713317
-2.7514e-06
-9.30531e-06
-6.54378e-06
2.34011e-06
0.218137
1.60622e-05
0.0510407
0.00178937
0
0.164121
0.181187
0
-4.94972e-06
0.231422
0.026989
0.00660465
0.0416132
-3.42217e-06
0.120126
-2.00863e-05
-6.19732e-06
0.191094
-4.98609e-05
0.0308457
2.72702e-05
0.0106342
0.00109049
9.57255e-06
0.056813
0.00535245
0.110228
-2.1994e-07
1.827e-06
0.0270226
-0.00150135
0.151946
0.0119428
0.152937
0.186708
0.118871
0.215898
8.60002e-06
-0.0157164
0.168303
0
0.104474
0.0132767
0.211394
-5.91017e-06
5.14056e-05
-0.00210874
2.36353e-05
0.208715
-0.00281316
0.217557
3.42961e-05
-0.00121136
0.0010017
0.224138
2.11875e-05
-8.53188e-05
0.00399293
-0.000165732
0.194832
-5.43139e-08
-0.000133581
3.77407e-06
-5.29513e-08
0.190157
0.0289027
5.7205e-05
8.31786e-06
0.198982
8.89684e-07
0.0213567
-0.000172785
0.00562898
0.132038
0.0170151
0.000744802
0.127771
-1.86174e-05
0.0549893
-3.95006e-05
1.70725e-05
0.124408
0.182591
-4.48545e-06
-0.00682784
0.187273
3.52707e-05
0.111251
1.0775e-06
0.211882
0.0845529
0.218101
-1.99181e-05
0.0703333
0.114806
0.197867
1.46893e-05
0.101598
8.64101e-07
1.34215e-05
0.206869
0.0812628
0.213798
-3.58376e-07
0.117505
-9.1042e-06
0.152067
-0.000510612
-0.00369118
7.22956e-06
0.00731427
-0.000203476
0.0257092
-5.86081e-06
-7.99313e-08
-0.000736889
5.65371e-06
-0.00663246
0.000211268
-0.00880934
-1.03399e-05
-0.00770958
9.58331e-07
0.00295637
-2.51479e-06
0.00518729
0.00015547
0.0312462
-1.28839e-05
-3.26182e-05
-0.00035085
0
3.37075e-05
0.000903311
-8.08776e-05
1.28471e-05
-0.000414708
0.125088
2.85486e-06
0.179628
-0.00522329
-0.00125867
0.19535
-0.00377468
-0.00046426
-1.72665e-05
-0.00106864
2.29454e-05
-0.000322379
6.71707e-06
-1.02606e-05
0.141034
-0.00138751
-0.000172419
-4.14585e-06
-0.00118461
-1.80262e-05
-0.000217303
-6.75304e-05
0.000154119
0.000567633
0.000689582
1.6279e-05
0.114009
0.000146257
-6.46663e-05
0.000394109
0.000103176
-0.0404479
-1.29567e-05
-0.000147766
0.140481
5.18116e-05
0.028818
1.13812e-05
-0.00320542
-0.000201531
0.0338464
-4.9306e-05
-1.87034e-05
0.00602707
0.000254081
0.196096
-3.89166e-05
4.2393e-05
0.0165859
0.176263
0.00666466
-0.00482873
0.151937
1.2826e-06
-0.000158982
9.82865e-06
0.00313727
1.85993e-05
0.0234411
0.00021839
1.00521e-05
-0.000633986
0.101456
-9.87863e-07
0.000635303
-0.00198954
-0.000130163
-4.04434e-05
-0.00579704
0.135425
0.000448602
0.165945
-1.90751e-06
1.35701e-05
0.00245111
0.0848307
1.66282e-05
0.135679
-0.0278137
0.217053
-2.22255e-05
-0.0109258
0
0.000197824
0.194877
0.000997199
0
1.60755e-05
-1.22781e-05
-0.00101907
0.00185536
-3.4427e-06
-0.000875494
0.191964
-4.35306e-05
0.156304
-2.14223e-05
-0.00409492
0.189256
-6.77109e-07
-0.000187322
-6.84999e-05
-0.00126585
-1.06961e-05
-0.0155826
0.139368
1.64363e-05
0.147471
-0.00110488
-0.000146004
-0.000119773
-7.89342e-06
0.0014873
-0.000489853
1.21298e-06
0.00407357
0.154045
4.45415e-06
0.00954153
0.190837
-1.39069e-06
-1.95796e-05
8.21027e-06
-0.00010219
0.00106701
-1.39217e-05
-0.000337742
1.65504e-05
-6.81437e-06
-0.000456111
-0.000326863
0.209827
-0.00146476
2.38254e-05
-0.000765659
0.00182159
-0.000792593
0.00201821
-0.000119179
0.00520022
0.00195766
-4.24135e-05
-0.000766212
0.0138645
-0.00236964
0.000285367
-0.000196114
-0.00015707
-1.70059e-05
0.107893
-9.56655e-05
0.000552646
-0.000233087
-2.7495e-06
-7.49053e-07
-0.000575046
0.0328901
-0.00893129
7.93724e-07
-1.04301e-05
0.000152652
-0.000103237
0.000115787
8.94087e-05
0.000274377
0.000126099
4.62775e-05
0.13009
0.160983
0.000149288
1.35114e-05
-0.00210707
-3.04609e-06
-0.00162311
1.98143e-05
-1.34634e-07
0.00108936
0
0.165318
0.0980103
0.0219982
5.15137e-06
-8.51147e-05
-0.0205273
0.215594
3.32538e-05
-0.00304651
0.000118157
0.000420678
2.18878e-06
-0.000108868
0.138323
-1.71174e-05
3.35097e-05
-0.00529039
0.000479486
0.111611
3.65134e-06
-0.00159009
0.00123336
0.000911927
4.91935e-05
1.1454e-05
0.00204205
0.225393
0.0337466
0.183506
0.0222727
2.88845e-06
0.142006
0.032291
0.00111591
-0.000931945
-0.000266234
-2.44214e-05
0.000105032
0.129133
-0.000134997
0.00215649
0.0147313
-1.08666e-05
8.62603e-06
5.20939e-06
0.000507987
5.13916e-05
4.56086e-05
0.000334767
6.17501e-05
-9.04342e-05
-0.000110941
-4.52516e-05
0.00016738
0.000126794
1.46811e-07
0.00136751
0.102629
0.16754
0.143441
0.0144895
0.000678108
2.98868e-05
-0.000474526
-0.0116952
0.125166
-8.26236e-05
-6.41325e-05
-0.00069477
-3.08668e-05
0.00207799
6.79428e-06
0.194582
2.0941e-05
0.025849
0.174944
-0.000385755
0.0453955
-2.9481e-06
5.11788e-05
0.000396349
0.211125
0
-0.0019309
1.59975e-05
0.0413013
0.000695393
0.13144
-0.000169535
-0.00101563
0.000239034
-7.11236e-05
0.000170893
1.42836e-06
0.191681
0.172891
2.96125e-05
0.000153651
2.24283e-05
-0.000451081
-2.4598e-05
0.003749
-0.000496059
0
0.100539
0.00347059
9.08263e-05
0.00110142
-0.00591714
-1.2279e-06
-0.000193735
-3.10798e-06
-0.00159158
0.196851
-3.56031e-05
0.0261479
-0.000294683
0.000114749
1.38566e-05
0.0195845
0.00293957
0.228878
3.39349e-06
-1.18631e-05
-0.00196092
0.0014969
-3.61097e-05
-3.86018e-05
-5.0205e-05
-0.00010152
-1.78716e-05
-3.07979e-07
0.000177398
-0.00755654
0.134128
3.97816e-06
8.90725e-05
0.128816
-0.000232562
0.0205984
0.0065073
6.78103e-06
0.233677
-0.0112857
0.20477
-9.77961e-06
0.269131
0.0272154
0.00110596
5.28205e-05
-0.000646132
7.6936e-08
-5.6999e-06
0.0389906
-0.00325882
0.198239
-1.57442e-05
-0.000109306
-0.00020471
7.27145e-06
-8.07906e-05
-1.64527e-05
0.186702
-0.00170078
-7.63239e-05
0.186743
-0.00239086
-0.00121557
0.175422
-0.000107123
-0.00296335
-3.63978e-05
9.98657e-05
-0.000549137
2.86471e-05
0.000170932
-0.00010624
0.000156864
2.34695e-06
-9.5857e-05
0.000372677
-0.000191346
4.05466e-05
0.025116
-0.000921354
5.20237e-05
6.0064e-06
7.96633e-05
3.44589e-05
-2.86543e-06
2.96139e-05
0.0203364
0.247485
0.163004
0.109546
0.265998
0.285924
0.0819285
0.295479
-4.8117e-06
0.0990445
0.290391
-0.000232988
-1.11624e-06
-0.00246449
0
0.198382
5.49988e-06
-0.000140202
0.106711
-4.86834e-07
0.272051
0.107063
0
-2.08488e-05
-1.17482e-05
-2.927e-05
0.00231706
2.66919e-05
-5.66308e-05
-0.000227916
0.29831
-8.65094e-05
0.191552
0.00112002
2.305e-05
-3.53024e-06
0.00629524
0.184619
-2.1555e-06
0.00177993
3.96511e-05
0.0889547
0.146855
-2.30817e-05
-7.0702e-05
-0.00637871
7.04614e-06
-1.1786e-05
-9.65429e-06
1.85927e-07
2.91812e-05
-0.00259313
-0.0139848
0.0247422
3.08503e-05
-3.63467e-05
0.000137427
0
0.139278