# vtk DataFile Version 2.0
Unstructured Grid by M++
ASCII
DATASET UNSTRUCTURED_GRID
POINTS 4072 float
  0.546875   0.656250 0
  0.546875   0.578125 0
  0.718750   0.625000 0
  0.656250   0.875000 0
  0.734375   0.609375 0
  0.671875   0.859375 0
  0.718750   0.609375 0
  0.656250   0.859375 0
  0.734375   0.593750 0
  0.671875   0.843750 0
  0.578125   0.984375 0
  0.640625   0.734375 0
  0.546875   0.593750 0
  0.593750   0.984375 0
  0.656250   0.734375 0
  0.640625   0.984375 0
  0.703125   0.734375 0
  0.546875   0.781250 0
  0.609375   0.531250 0
  0.546875   0.796875 0
  0.968750   0.531250 0
  0.609375   0.546875 0
  0.890625   0.984375 0
  0.953125   0.734375 0
  0.578125   0.593750 0
  0.515625   0.843750 0
  0.953125   0.625000 0
  0.890625   0.875000 0
  0.781250   0.578125 0
  0.718750   0.828125 0
  0.734375   0.812500 0
  0.640625   0.968750 0
  0.703125   0.718750 0
  0.671875   0.937500 0
  0.734375   0.687500 0
  0.671875   0.953125 0
  0.734375   0.703125 0
  0.656250   0.953125 0
  0.718750   0.703125 0
  0.656250   0.968750 0
  0.718750   0.718750 0
  0.578125   0.765625 0
  0.562500   0.765625 0
  0.578125   0.750000 0
  0.921875   0.953125 0
  0.984375   0.703125 0
  0.921875   0.937500 0
  0.984375   0.687500 0
  0.562500   0.953125 0
  0.578125   0.578125 0
  0.515625   0.828125 0
  0.562500   0.578125 0
  0.656250   0.937500 0
  0.718750   0.687500 0
  0.640625   0.937500 0
  0.703125   0.687500 0
  0.640625   0.953125 0
  0.703125   0.703125 0
  0.546875   0.765625 0
  0.609375   0.515625 0
  0.531250   0.765625 0
  0.593750   0.515625 0
  0.890625   0.937500 0
  0.953125   0.687500 0
  0.859375   0.750000 0
  0.796875   1.000000 0
  0.984375   0.734375 0
  0.921875   0.984375 0
  0.968750   0.734375 0
  0.906250   0.984375 0
  0.984375   0.718750 0
  0.921875   0.968750 0
  0.593750   0.546875 0
  0.531250   0.796875 0
  0.593750   0.531250 0
  0.531250   0.781250 0
  0.953125   0.515625 0
  0.578125   0.562500 0
  0.515625   0.812500 0
  0.578125   0.546875 0
  0.515625   0.796875 0
  0.593750   0.609375 0
  0.531250   0.859375 0
  0.578125   0.609375 0
  0.515625   0.859375 0
  0.859375   0.703125 0
  0.796875   0.953125 0
  0.828125   0.750000 0
  0.765625   1.000000 0
  0.828125   0.734375 0
  0.765625   0.984375 0
  0.921875   0.796875 0
  0.984375   0.546875 0
  0.562500   0.812500 0
  0.906250   0.796875 0
  0.921875   0.781250 0
  0.812500   0.765625 0
  0.750000   1.000000 0
  0.812500   0.750000 0
  0.859375   0.531250 0
  0.796875   0.781250 0
  0.796875   0.765625 0
  0.781250   0.781250 0
  0.875000   0.578125 0
  0.812500   0.828125 0
  0.937500   0.734375 0
  0.875000   0.984375 0
  0.765625   0.578125 0
  0.703125   0.828125 0
  0.781250   0.562500 0
  0.718750   0.812500 0
  0.750000   0.578125 0
  0.687500   0.828125 0
  0.765625   0.562500 0
  0.703125   0.812500 0
  0.625000   0.953125 0
  0.687500   0.703125 0
  0.609375   0.968750 0
  0.671875   0.718750 0
  0.609375   0.953125 0
  0.671875   0.703125 0
  0.625000   0.875000 0
  0.687500   0.625000 0
  0.609375   0.890625 0
  0.671875   0.640625 0
  0.625000   0.890625 0
  0.687500   0.640625 0
  0.609375   0.906250 0
  0.671875   0.656250 0
  0.937500   0.578125 0
  0.875000   0.828125 0
  0.921875   0.593750 0
  0.859375   0.843750 0
  0.921875   0.578125 0
  0.859375   0.828125 0
  0.937500   0.640625 0
  0.875000   0.890625 0
  0.562500   0.703125 0
  0.546875   0.718750 0
  0.546875   0.703125 0
  0.531250   0.718750 0
  0.906250   0.968750 0
  0.968750   0.718750 0
  0.906250   0.953125 0
  0.968750   0.703125 0
  0.906250   0.937500 0
  0.968750   0.687500 0
  0.890625   0.968750 0
  0.953125   0.718750 0
  0.890625   0.953125 0
  0.953125   0.703125 0
  0.593750   0.765625 0
  0.609375   0.750000 0
  0.593750   0.750000 0
  0.937500   0.953125 0
  0.843750   0.921875 0
  0.906250   0.671875 0
  0.828125   0.937500 0
  0.890625   0.687500 0
  0.546875   0.750000 0
  0.546875   0.734375 0
  0.531250   0.750000 0
  0.953125   0.671875 0
  0.890625   0.921875 0
  0.531250   0.671875 0
  0.515625   0.687500 0
  0.875000   0.921875 0
  0.937500   0.671875 0
  0.515625   0.937500 0
  0.859375   0.937500 0
  0.921875   0.687500 0
  0.859375   0.921875 0
  0.921875   0.671875 0
  0.843750   0.937500 0
  0.906250   0.687500 0
  0.921875   0.703125 0
  0.859375   0.953125 0
  0.937500   0.703125 0
  0.875000   0.953125 0
  0.937500   0.687500 0
  0.875000   0.937500 0
  0.828125   0.656250 0
  0.968750   0.593750 0
  0.968750   0.578125 0
  0.906250   0.812500 0
  0.953125   0.593750 0
  0.953125   0.578125 0
  0.875000   0.843750 0
  0.937500   0.593750 0
  0.953125   0.656250 0
  0.531250   0.921875 0
  0.890625   0.906250 0
  0.953125   0.640625 0
  0.890625   0.890625 0
  0.937500   0.656250 0
  0.875000   0.906250 0
  0.718750   0.593750 0
  0.656250   0.843750 0
  0.734375   0.578125 0
  0.671875   0.828125 0
  0.718750   0.578125 0
  0.656250   0.828125 0
  0.734375   0.562500 0
  0.671875   0.812500 0
  0.578125   0.890625 0
  0.640625   0.640625 0
  0.593750   0.890625 0
  0.656250   0.640625 0
  0.578125   0.906250 0
  0.640625   0.656250 0
  0.578125   0.953125 0
  0.640625   0.703125 0
  0.593750   0.953125 0
  0.656250   0.703125 0
  0.578125   0.968750 0
  1.000000   0.703125 0
  0.640625   0.718750 0
  0.593750   0.968750 0
  0.656250   0.718750 0
  0.734375   0.515625 0
  0.671875   0.765625 0
  0.968750   0.765625 0
  0.984375   0.750000 0
  0.843750   0.750000 0
  0.781250   1.000000 0
  0.859375   0.734375 0
  0.796875   0.984375 0
  0.843750   0.734375 0
  0.781250   0.984375 0
  0.859375   0.718750 0
  0.796875   0.968750 0
  0.843750   0.718750 0
  0.781250   0.968750 0
  0.828125   0.640625 0
  0.765625   0.875000 0
  0.828125   0.625000 0
  0.875000   0.546875 0
  0.812500   0.796875 0
  0.812500   0.781250 0
  0.796875   0.796875 0
  0.875000   0.609375 0
  0.812500   0.859375 0
  0.968750   0.796875 0
  0.546875   0.687500 0
  0.546875   0.671875 0
  0.531250   0.687500 0
  0.984375   0.796875 0
  1.000000   0.796875 0
  0.562500   0.796875 0
  0.578125   0.781250 0
  0.625000   0.531250 0
  0.562500   0.781250 0
  0.578125   0.640625 0
  0.515625   0.890625 0
  0.562500   0.640625 0
  0.578125   0.625000 0
  0.515625   0.875000 0
  0.875000   0.703125 0
  0.812500   0.953125 0
  0.750000   0.609375 0
  0.687500   0.859375 0
  0.765625   0.593750 0
  0.703125   0.843750 0
  0.750000   0.593750 0
  0.687500   0.843750 0
  0.625000   0.984375 0
  0.687500   0.734375 0
  0.625000   0.968750 0
  0.687500   0.718750 0
  0.609375   1.000000 0
  0.671875   0.750000 0
  0.609375   0.984375 0
  0.671875   0.734375 0
  0.625000   0.906250 0
  0.687500   0.656250 0
  0.609375   0.921875 0
  0.671875   0.671875 0
  0.625000   0.921875 0
  0.687500   0.671875 0
  0.609375   0.937500 0
  0.671875   0.687500 0
  0.625000   0.937500 0
  0.687500   0.687500 0
  0.968750   0.656250 0
  0.906250   0.906250 0
  0.984375   0.640625 0
  0.921875   0.890625 0
  0.968750   0.640625 0
  0.906250   0.890625 0
  0.984375   0.625000 0
  0.921875   0.875000 0
  0.968750   0.625000 0
  0.906250   0.875000 0
  0.953125   0.765625 0
  0.906250   1.000000 0
  0.968750   0.750000 0
  0.937500   0.765625 0
  0.953125   0.750000 0
  0.953125   0.796875 0
  0.937500   0.796875 0
  0.953125   0.781250 0
  1.000000   0.531250 0
  0.937500   0.781250 0
  0.984375   1.000000 0
  1.000000   1.000000 0
  1.000000   0.984375 0
  0.890625   0.765625 0
  0.718750   0.515625 0
  0.656250   0.765625 0
  0.890625   0.796875 0
  0.890625   0.781250 0
  0.562500   0.671875 0
  0.921875   0.656250 0
  0.578125   0.656250 0
  0.515625   0.906250 0
  0.562500   0.656250 0
  0.890625   0.750000 0
  0.828125   1.000000 0
  0.875000   0.734375 0
  0.812500   0.984375 0
  0.546875   0.968750 0
  0.625000   0.718750 0
  0.171875   0.656250 0
  0.750000   0.046875 0
  0.062500   0.609375 0
  0.046875   0.609375 0
  0.734375   0.031250 0
  0.046875   0.593750 0
  0.718750   0.125000 0
  0.703125   0.109375 0
  0.687500   0.125000 0
  0.500000   0.937500 0
  0.437500   0.765625 0
  0.359375   0.625000 0
  0.296875   0.875000 0
  0.343750   0.609375 0
  0.281250   0.859375 0
  0.250000   0.515625 0
  0.484375   0.531250 0
  0.468750   0.515625 0
  0.468750   0.656250 0
  0.453125   0.671875 0
  0.031250   0.937500 0
  0.390625   0.921875 0
  0.250000   0.968750 0
  0.765625   0.234375 0
  0.750000   0.093750 0
  0.750000   0.078125 0
  0.000000   0.515625 0
  0.500000   0.765625 0
  0.328125   0.718750 0
  0.343750   0.703125 0
  0.328125   0.687500 0
  0.312500   0.703125 0
  0.343750   0.781250 0
  0.406250   0.531250 0
  0.015625   0.531250 0
  0.062500   0.593750 0
  0.750000   0.015625 0
  0.062500   0.578125 0
  0.046875   0.578125 0
  0.734375   0.000000 0
  0.296875   0.687500 0
  0.484375   0.843750 0
  0.031250   0.593750 0
  0.718750   0.015625 0
  0.031250   0.578125 0
  0.468750   0.828125 0
  0.703125   0.000000 0
  0.750000   0.234375 0
  0.453125   0.750000 0
  0.218750   0.687500 0
  0.421875   1.000000 0
  0.000000   0.218750 0
  0.484375   0.750000 0
  0.468750   0.765625 0
  0.468750   0.875000 0
  0.046875   0.093750 0
  0.296875   0.781250 0
  0.437500   0.984375 0
  0.015625   0.203125 0
  0.500000   0.796875 0
  0.078125   0.015625 0
  0.484375   0.875000 0
  0.484375   1.000000 0
  0.062500   0.218750 0
  0.468750   0.859375 0
  0.484375   0.781250 0
  0.062500   0.000000 0
  0.484375   0.921875 0
  0.062500   0.140625 0
  0.453125   1.000000 0
  0.031250   0.218750 0
  0.312500   0.562500 0
  0.250000   0.812500 0
  0.468750   0.937500 0
  0.046875   0.156250 0
  0.343750   0.593750 0
  0.375000   0.562500 0
  0.312500   0.812500 0
  0.203125   0.671875 0
  1.000000   0.234375 0
  0.375000   0.593750 0
  0.312500   0.796875 0
  0.484375   0.890625 0
  0.062500   0.109375 0
  0.296875   0.796875 0
  0.187500   0.656250 0
  0.984375   0.218750 0
  0.359375   0.546875 0
  0.375000   0.625000 0
  0.359375   0.609375 0
[...]
POINT_DATA 4072
SCALARS scalar_value float 1
LOOKUP_TABLE default
5.61165e-06
8.51322e-06
2.69941e-05
-2.26574e-07
-7.27865e-05
-1.8978e-07
-1.00694e-05
-2.10137e-07
0.000102018
3.93459e-07
-3.78045e-07
1.00256e-05
2.82013e-06
4.82747e-07
-2.70893e-05
-3.13004e-07
6.28619e-06
5.72995e-06
-8.55595e-05
-7.31609e-06
2.21192e-05
-0.000124424
1.00608e-08
-1.16542e-06
0.000125569
1.6296e-07
6.74612e-06
-2.65029e-07
-4.51516e-05
2.56279e-06
2.75071e-06
-1.02598e-07
1.8399e-06
-1.26281e-07
1.50548e-05
-1.53746e-07
-7.32212e-06
-1.24719e-07
-1.10189e-05
1.90304e-07
1.01007e-05
-9.1494e-06
-5.83539e-06
3.11726e-05
-3.12753e-08
5.81168e-07
3.12763e-09
-6.75146e-08
-8.27585e-07
0.000129949
-4.0197e-06
-2.17067e-05
1.96737e-07
8.68608e-06
-5.36244e-07
2.07391e-05
-1.96169e-08
-8.9667e-06
-3.68856e-06
-0.000196474
3.3614e-06
0.000140906
1.73637e-09
1.28076e-07
-1.10685e-07
0
-4.66487e-07
1.05366e-08
1.32806e-06
-8.02101e-08
1.36218e-07
5.28253e-08
4.15335e-05
1.17537e-06
9.48845e-05
-1.38479e-06
4.6551e-07
0.000177697
2.34931e-06
0.000193741
-4.93982e-06
0.000194724
-9.49472e-07
7.74122e-05
-2.32659e-06
-4.55061e-06
-2.88793e-07
1.00276e-06
0
1.96921e-06
1.04577e-07
1.21728e-06
-2.30248e-06
-2.65085e-06
3.42879e-08
-9.02517e-07
-1.3187e-06
0
5.0322e-07
2.58342e-05
-3.86378e-06
1.56096e-06
2.83328e-06
-5.59249e-06
-1.67015e-06
9.82899e-07
6.71686e-08
-4.37908e-05
-1.3475e-06
5.88172e-05
-3.09077e-06
-3.53046e-05
1.70366e-06
4.28146e-05
2.39832e-06
2.18659e-07
-2.17755e-05
-6.18217e-08
-5.54962e-06
-6.67875e-08
9.70349e-07
1.17845e-06
9.2416e-05
-1.48317e-06
-7.9234e-05
-8.11888e-07
-5.40708e-05
7.53209e-07
5.5772e-05
-1.36431e-05
-3.92571e-07
7.05147e-06
-7.82441e-07
-4.16234e-06
5.93937e-07
-4.50131e-06
-4.84527e-08
1.84094e-05
2.77967e-06
-1.05621e-05
2.76295e-06
-2.68369e-08
-1.01816e-06
-1.87879e-08
9.63418e-08
-1.17265e-07
6.44753e-07
-6.5699e-08
1.82001e-06
2.48219e-08
-9.48163e-07
1.01882e-05
-2.56427e-05
3.82348e-05
-9.02001e-09
-9.98939e-08
7.02777e-07
-3.34378e-09
3.65737e-06
-5.05098e-06
-2.26077e-06
1.27388e-06
3.36011e-07
-2.25346e-08
4.53865e-06
7.85604e-06
1.28715e-07
-2.44682e-06
5.18894e-07
-1.49688e-07
3.80751e-06
-1.83602e-08
-4.71186e-06
2.15177e-07
8.19665e-07
-4.3644e-06
6.59512e-08
1.73961e-06
-1.24406e-09
-1.59348e-07
-4.08185e-09
1.17547e-05
1.03783e-05
-1.13232e-05
-3.97806e-06
2.77392e-06
9.86433e-07
8.56937e-07
5.45762e-06
1.36705e-06
-2.07701e-06
-1.08212e-07
-4.33704e-06
1.18394e-07
4.44201e-06
-9.12887e-08
-1.37534e-05
1.46621e-06
-8.95043e-05
-2.60061e-06
-1.86177e-05
-1.51891e-06
8.34545e-05
4.95405e-06
-2.09073e-06
5.29377e-05
-1.76565e-06
-0.000105505
1.35597e-06
0.000105357
-9.49415e-07
4.44821e-06
5.23459e-08
-3.63005e-05
5.89692e-07
1.28656e-07
-7.73454e-06
1.43476e-07
3.15308e-05
-0.000198706
-1.73245e-06
3.83538e-07
7.21839e-07
2.7748e-06
0
8.51025e-08
-2.11389e-07
-5.19473e-06
-5.73784e-08
2.26906e-06
4.00759e-08
2.79904e-06
-2.43897e-07
-8.28771e-06
-4.47421e-06
2.05384e-06
1.05383e-05
-3.93896e-06
3.65681e-06
2.65077e-06
9.74619e-07
3.18557e-07
-5.6045e-08
2.62414e-06
-1.23319e-05
-1.64475e-06
4.29928e-07
4.8258e-08
-4.65991e-07
2.59108e-06
0.000317147
3.38924e-06
1.30049e-05
-1.70008e-06
-1.15443e-05
3.80043e-05
-1.26751e-06
9.29159e-07
-1.09819e-08
1.51274e-06
5.93403e-07
5.77109e-05
3.86424e-07
6.38113e-07
-8.94062e-07
1.8188e-07
-2.37429e-05
-1.51679e-07
2.36551e-05
0
-3.66725e-06
-4.78674e-08
7.77285e-06
6.90343e-07
2.46669e-05
-4.3331e-07
-2.92702e-05
-2.50884e-07
-1.52936e-05
9.81761e-08
1.2554e-05
4.85736e-08
1.56571e-05
-4.01059e-07
-4.18598e-08
-8.18619e-07
5.95351e-08
6.82274e-07
-1.12805e-07
-1.45912e-08
-8.68346e-07
1.95537e-06
1.89576e-07
4.1779e-07
0
-1.09837e-06
-5.56205e-07
7.04315e-07
5.49231e-07
-6.55611e-07
-3.10267e-07
3.02211e-05
7.52144e-08
0
0
-6.84293e-09
-1.15968e-06
-0.000215632
-7.85706e-06
8.04161e-07
-3.07925e-06
1.78221e-06
1.82749e-06
3.9832e-05
-9.35036e-07
-1.60039e-06
-2.04214e-06
0
-1.45634e-06
1.71696e-08
3.45438e-07
3.69836e-05
9.62334e-06
0.00167856
-8.39799e-06
6.80658e-06
0.00116035
-7.57325e-06
0.00127524
0.00697661
0.037251
-1.28664e-06
-2.85549e-06
-1.04638e-05
1.34262e-06
3.23625e-05
-8.79284e-07
9.27511e-06
2.70263e-05
3.58187e-05
-1.1315e-06
1.64677e-05
1.4403e-08
1.65914e-07
-6.03907e-08
-0.000856601
0.000594413
0.000799045
-1.72911e-06
3.82544e-06
4.87895e-06
4.25351e-06
-1.30741e-06
-4.17021e-06
-6.7057e-07
-8.33962e-05
-1.34389e-07
1.06289e-05
0.00250016
-8.90771e-06
6.05297e-06
0.00291809
1.54949e-06
3.18276e-07
6.62738e-06
0.0107274
-4.90428e-06
-1.24682e-06
0.00377911
-0.00119247
2.04946e-06
-1.58843e-07
0
7.53391e-06
-9.11319e-06
-1.36693e-06
-9.17222e-07
2.72598e-05
7.19214e-07
-8.29193e-07
-9.3876e-06
3.01877e-06
-0.000115008
-8.51846e-07
0
0.000326165
-2.13511e-06
-3.63939e-06
0.000142378
1.97951e-06
-0.000349246
0
-2.34299e-05
-3.655e-05
1.47158e-06
-1.43222e-06
2.97003e-05
-2.41302e-05
-8.3754e-05
9.3448e-07
-8.82478e-06
5.26431e-05
-3.24733e-05
-9.21119e-07
2.87508e-06
-9.68758e-05
-4.354e-07
7.87677e-06
-7.45406e-05
9.27496e-05
5.48936e-06
-4.67399e-06
-1.50746e-05
-6.55294e-07
-1.97062e-06
5.60416e-05
4.35255e-07
-1.307e-06
6.59103e-06
1.97334e-06
4.88345e-05
-9.78915e-08
-1.74914e-05
9.95786e-07
-8.12043e-06
8.87153e-05
-1.50012e-06
4.65463e-05
-1.89129e-06
-3.80417e-06
-7.89076e-05
5.60787e-06
2.20622e-07
4.91454e-05
2.30617e-06
-1.39971e-05
7.10796e-05
-8.95107e-05
-1.08947e-06
2.41021e-05
-8.9622e-05
2.2207e-06
0.00653003
4.35568e-06
-1.14856e-06
-0.000702854
0.0124925
-1.9251e-06
0.0631754
-1.9199e-06
3.24707e-06
4.99836e-06
1.47052e-05
0.000895689
2.91895e-06
-5.34313e-05
1.25439e-06
6.45489e-06
8.36094e-05
-6.20506e-07
7.61512e-06
-7.28366e-05
4.90109e-07
0.000753809
2.66031e-06
0.0011393
0.00415716
0.00116723
-1.18473e-06
-1.75457e-06
-4.47774e-06
-6.54743e-06
1.27887e-06
6.581e-07
-1.33484e-06
-5.39717e-08
-7.32484e-06
1.29751e-06
-1.23148e-05
6.4125e-05
-0.00012906
-2.62857e-06
0.000108522
3.75183e-07
1.13983e-06
-2.90717e-05
7.9739e-07
5.61919e-05
-3.80898e-06
1.45715e-08
2.99003e-06
-2.83376e-06
0
-7.98784e-07
1.68193e-05
1.71357e-06
0
-5.09606e-07
-4.03999e-06
-7.64021e-05
-1.78214e-09
1.89708e-08
6.16716e-06
0
0
-4.62928e-07
1.80273e-05
2.3564e-06
-0.00019255
0.00330534
1.18019e-06
-4.27427e-06
-1.68365e-05
0.000225014
5.86571e-05
9.3243e-09
-0.000247926
6.49347e-06
3.84626e-06
6.49792e-09
-8.18705e-06
-1.61334e-06
0.000326264
-0.000434669
4.34717e-07
-2.72152e-05
0.00143902
6.26494e-06
3.01135e-07
5.97211e-05
-9.3015e-05
0.000269723
-4.54581e-07
6.09453e-07
-8.064e-06
-4.71283e-05
2.76199e-06
1.68316e-09
1.0096e-08
1.44416e-07
-7.18611e-08
-8.03316e-06
2.401e-06
0
-4.13659e-06
-1.00705e-05
5.44804e-07
-2.3495e-05
-5.78784e-05
-9.01526e-07
-3.10221e-05
-3.44339e-06
9.38525e-07
-0.000244301
-1.08823e-05
2.12182e-06
-2.28655e-05
1.42563e-07
9.03459e-08
4.7597e-07
-2.34424e-05
5.5393e-05
9.41294e-08
0.00011383
-0.0001165
-3.17624e-06
-0.000191754
-1.18078e-06
-5.76124e-05
3.96425e-07
-1.21381e-06
-5.06178e-05
-2.6719e-07
-4.65747e-05
2.31747e-06
2.10511e-05
-3.30066e-05
-9.76714e-07
-1.9152e-05
0.000175512
-4.95112e-06
0.000900071
-0.00010467
-1.60969e-06
0.00129471
1.71655e-05
-1.9728e-05
-9.38104e-06
3.29062e-06
-2.06529e-06
-1.85728e-06
-1.20196e-05
-5.11314e-06
0.00105668
5.12379e-08
0.000982829
-0.00163577
1.57801e-08
0.000281975
-4.20521e-05
1.86233e-05
-6.05412e-09
-2.75834e-06
1.02593e-05
-7.59082e-06
0.000704881
-0.000624966
1.416e-06
2.53647e-05
0.000502081
2.56995e-05
-2.05557e-06
8.56869e-05
0.000346464
3.21437e-05
-6.70769e-05
-5.48578e-05
-4.5603e-05
0.000146647
-1.37627e-07
5.1187e-05
5.09616e-05
-6.05991e-05
-0.000540661
6.77379e-06
4.46141e-06
-1.60945e-06
-0.000435162
0.00035748
6.45515e-07
1.67358e-05
8.38828e-07
-2.02786e-06
1.94676e-05
-0.000359018
-2.1145e-06
0.0474772
-3.11219e-05
-5.58315e-07
-8.42313e-07
1.00721e-07
8.43382e-05
-5.63691e-05
-6.60564e-06
-0.000134443
0.000100216
-8.35264e-06
0.00019772
0.000123994
-9.05907e-06
7.98162e-05
1.67337e-05
0.00138704
-2.46264e-06
6.16524e-06
-0.000105957
-9.58053e-07
-2.94379e-05
-1.70598e-06
3.21573e-05
1.54965e-06
-2.34245e-06
1.08445e-05
-1.48992e-05
1.28445e-05
-3.09444e-06
3.92177e-08
5.93351e-08
2.71642e-06
0.000795347
1.1519e-07
-6.82826e-05
0
0.0104576
-1.55773e-05
-3.8502e-05
-4.09882e-06
0.00194275
3.12427e-07
-2.92899e-05
-6.13059e-07
9.64038e-06
1.29931e-06
0.000250509
-1.03101e-05
3.07591e-08
0.000240186
-6.39516e-08
-0.000235726
-0.000236497
-3.99999e-07
0.000123412
-8.29847e-05
0
0.000200595
0.00613345
5.85223e-07
0.0124998
-1.16519e-08
0.000176387
0.00702406
3.28337e-06
-0.000481491
-1.01672e-05
0.000130344
-9.47545e-07
8.14829e-05
3.97646e-08
8.22627e-07
0.000155385
-2.40133e-07
-0.000137081
-1.36691e-07
0.000101209
0.000127475
0.000389841
6.46804e-08
-0.000212165
4.99591e-05
0.000215548
-0.000232294
-2.65986e-06
-0.00012073
-0.000144132
0.000118802
2.04695e-06
0.000568394
0.0194998
-2.85723e-06
0.0001108
-1.36064e-07
-1.80912e-06
0.000141788
0.0217145
3.19495e-06
-0.000171916
2.55199e-06
0.000197109
-0.000176464
0.00052075
0.0238175
3.09159e-07
0.000404016
4.33197e-07
0.0257321
-0.0129718
8.90543e-08
-0.000524624
0.00120837
0.000572172
0
0.0181702
0.0017297
1.02483e-05
-0.00253437
1.91394e-07
-1.70367e-06
-3.69157e-06
-0.00136252
1.87945e-05
-3.16437e-06
1.4581e-05
2.00104e-06
-3.25352e-05
-3.35984e-06
-2.61223e-05
-3.73427e-06
-1.89106e-06
-3.02852e-06
-6.40975e-07
6.27637e-05
8.43612e-05
0.000161099
-0.000212861
4.69158e-06
-4.77155e-05
-0.000603564
2.52887e-05
1.58937e-06
-4.98489e-05
7.35314e-05
-1.41448e-06
-4.67082e-05
-0.000245847
6.21638e-05
8.41819e-05
7.27389e-06
-0.000225834
1.51651e-06
-0.000190155
-4.55664e-05
2.60073e-05
-8.42825e-06
1.01472e-07
0.000195668
9.5449e-07
-0.000468845
0.0173349
-0.00286948
0.017352
-1.18689e-06
-0.000137059
-0.00199954
0.0855416
0.0136971
0.000281471
5.32726e-06
0.0196431
-1.18061e-07
0.000119237
-1.00401e-06
-0.000163227
4.55203e-06
0.034702
1.5312e-08
1.57603e-05
0.0395345
-1.22336e-06
-1.73204e-05
-3.70238e-06
0.0523932
4.40964e-08
-0.00126276
-9.6326e-08
0.0549767
-4.57743e-07
1.24538e-07
-0.0010959
-1.23186e-05
0.00213132
2.74209e-07
0.00134317
0.00459826
2.07535e-07
1.66084e-05
-2.26887e-05
2.6333e-08
0.00266837
-3.00842e-08
-1.46254e-05
-1.06969e-06
0.000619395
-7.9866e-09
0.000185157
-0.000216095
-4.48662e-06
2.65773e-06
0.0177328
2.03273e-07
0.00136253
0.00209736
-0.00157185
-3.51926e-05
-4.15849e-05
-6.08223e-05
-1.25408e-05
0.000283419
0.0180725
0.000694859
0.0116608
5.19264e-08
-7.36074e-07
-0.000395431
-9.38154e-06
0.0464385
-1.12792e-07
-0.000310848
0.0492584
-4.75185e-07
-1.52089e-06
0.00084496
1.33558e-05
0.0594637
-4.12411e-07
-0.0020101
9.6898e-08
-2.364e-07
0.000144775
0.0651928
-0.000289203
-0.000321407
3.6746e-06
-0.000296093
-0.000233406
-3.15041e-06
0.00015204
2.61872e-08
1.49925e-06
0.000137039
0.00016273
5.65428e-05
8.39065e-06
-0.000127196
2.43476e-07
-0.00154078
0.00324119
-1.89274e-06
2.74209e-06
0.000110107
0.000265199
-1.22769e-05
0.00393088
0.000171299
-0.000217939
-3.55899e-07
0.000103489
6.45731e-06
-1.76601e-08
-2.36364e-08
-0.00026868
0.00169725
-0.000109247
-0.000682209
-3.85388e-05
1.77696e-05
-1.30341e-06
2.57958e-05
0.00709225
-2.37215e-06
5.56039e-05
0.00533229
-6.50892e-07
0.00459876
-1.58334e-05
0.00542695
-2.16224e-06
-0.000419204
0.000162554
-1.73489e-08
-1.13513e-06
0.00012164
0.00012865
0
0.000198775
-0.000135992
7.5835e-06
0.0208335
0
4.86258e-06
0.000144453
-2.90788e-06
-0.00469048
0.000174766
0.0177481
-0.000123206
1.28674e-06
-0.000582918
-5.00597e-05
-7.54434e-05
7.675e-06
-0.000155667
-1.89176e-06
-0.00011052
9.61987e-05
-8.54963e-07
6.01973e-05
2.17409e-07
1.17876e-05
0.00416677
0.0176356
3.57301e-07
0.000127713
0.0146996
0.094494
8.16198e-06
0.00698629
0.0152868
-3.22357e-07
1.46365e-05
0.00668266
-3.38215e-05
0.00766965
0.00422523
0.00649752
0.0161683
1.1365e-06
-0.00144212
0.000638035
-3.6749e-05
-1.25974e-06
-4.38923e-05
0
-0.000524924
-0.00107789
-0.000503172
-8.80048e-07
0.000558001
-0.000325185
-0.000114871
0.000438576
0.000509546
0.000234194
-4.82599e-06
-2.49509e-06
-9.10536e-07
-0.00167907
-4.1025e-07
0.0010635
-6.88487e-07
-1.7266e-06
-0.000641801
5.22677e-06
0.00599324
-2.28711e-07
-0.000832658
0.00462757
-0.00332854
0
-2.19687e-06
5.93262e-05
-0.000187767
6.63834e-06
9.319e-05
-1.46735e-07
-0.00115223
0.000168164
0.000414819
-3.38783e-05
0.00554484
0
-0.0025223
0.00283008
-8.37736e-08
-1.01093e-06
-0.000259002
0.000118314
-1.85534e-05
-0.000163566
-5.46077e-05
-0.000138913
-8.61351e-07
0.00030733
-0.000274474
-9.07259e-05
-3.82775e-05
-5.74518e-05
5.10618e-05
8.76222e-06
-4.05935e-06
7.82243e-07
0.0168477
3.84372e-07
-0.000123122
0.00898711
2.44021e-05
0.0112511
3.09099e-06
3.35641e-05
0.00835621
3.54654e-07
0.000172613
0.0102697
7.02262e-07
0.00911328
-0.000752224
0.000375808
5.1647e-06
-0.000997391
-0.000390799
0.000806184
0.0013553
-5.94013e-08
-4.87046e-06
0.000851445
4.45378e-06
1.12134e-06
8.3135e-05
1.79087e-05
0.0275378
-0.000962494
0.00138806
0.000831446
-0.000215214
0.000252203
0.00299166
-0.000985339
0.000458991
-0.000457649
-7.08298e-07
8.5851e-07
-0.000532347
-0.000712778
-0.000140065
-0.000151364
-0.000162757
0.000340367
-0.000129105
0
-3.09905e-05
3.48876e-06
-0.00293814
5.45242e-06
-1.73589e-09
-0.000323091
-3.26776e-05
2.0981e-05
0.00736945
1.90964e-06
-1.82545e-05
-0.000261052
2.01352e-07
-0.000639835
-0.000249631
4.05382e-06
-0.000501786
-0.000370888
-7.05951e-08
2.17587e-08
0.00120056
0.000241363
-0.000206389
-6.78877e-05
-0.00221431
0.0364036
-1.42446e-06
0.00257466
-0.000452021
2.51599e-05
-2.30508e-06
-5.7395e-05
4.40123e-05
2.03553e-06
1.27656e-08
0.000525428
0.00156935
2.56109e-07
-0.00020035
0.000479549
5.62569e-08
0.000194812
-0.000547103
-1.14511e-05
7.46522e-05
2.16785e-05
0.0131493
-2.63084e-07
-3.57463e-05
-6.36898e-05
5.07387e-07
4.37664e-05
-4.00865e-05
-1.29045e-06
6.13636e-07
7.6772e-05
0.000631741
3.55537e-05
-1.15127e-05
0.0181373
-1.98492e-07
0.000173753
-3.81981e-05
-0.000501162
2.65314e-05
-0.000439095
-2.40716e-07
-3.17216e-05
0.000106428
-0.000699801
-1.68873e-06
0.000443232
0.0265051
-7.54358e-07
-2.58044e-06
-1.7532e-07
1.4896e-05
0.000151373
-2.23754e-06
-7.81688e-06
4.19405e-05
3.75953e-05
-4.86888e-07
1.68536e-07
-3.34234e-06
-1.3675e-07
4.41912e-05
-0.000250409
4.59321e-06
-4.10614e-06
-3.50768e-07
-7.25015e-07
-0.00213399
-5.2047e-07
0.000149518
-0.000393073
0
-0.000483805
0.000564867
0
-1.21792e-07
-0.000372809
0.0012169
9.62744e-06
0.00167448
7.90293e-08
0.059573
-1.04789e-08
-9.36381e-08
0.0170746
-1.04329e-06
-0.000420302
2.53792e-06
-2.87541e-08
-8.19923e-05
8.52598e-07
-0.000767902
-1.50304e-05
0.0664031
-2.33121e-06
-9.43467e-07
-0.000446885
7.82656e-06
0.0349496
0.00021728
0.00751951
-0.000137221
0.000408947
0.00209285
-1.17588e-06
-0.000575437
0.000822104
0
-0.000141924
-4.70164e-05
0.00474495
-3.35028e-06
5.84754e-07
-0.000178528
5.92407e-07
0.00467642
0.000370245
0.00270878
1.18866e-06
0.000206311
0.000435684
0.00155871
4.74506e-06
-5.37472e-06
1.45845e-05
6.57881e-05
0.0090751
7.67783e-08
3.51867e-05
-3.21523e-06
-8.66918e-07
0.0185163
0.000871731
-2.30059e-07
-3.1609e-09
0.0161838
-3.03765e-07
0.00152665
7.31554e-05
-4.33034e-05
0.00158783
0.000289464
-3.53384e-05
0.0566518
4.73841e-07
-4.20121e-05
2.79247e-06
-2.22621e-06
-0.00154816
0.000621096
1.77859e-07
-0.00101849
0.0157138
8.83412e-08
0.00262889
-2.69618e-07
0.00110306
-0.000215054
-0.00158154
2.21481e-08
-0.00134785
0.000912904
0.0201239
-3.31551e-07
-0.000675713
4.55063e-07
-2.13943e-06
0.0174356
0.000954949
0.0144546
6.11308e-08
-0.00176125
7.70969e-08
0.0225843
5.73369e-06
-0.000192812
1.66494e-08
0.000763216
-3.80209e-06
0.00227785
1.16278e-07
3.41841e-07
0.00014601
-3.24859e-07
-0.000457835
9.75219e-06
0.00125687
1.07181e-09
0.000974969
-3.19202e-09
-6.54317e-05
-4.15537e-07
0.000300644
1.81623e-05
0.0032707
3.44775e-07
9.75036e-05
8.11304e-05
0
-9.24558e-05
-0.000205122
8.14287e-05
-2.64711e-06
9.71111e-05
0.00339172
-3.58476e-07
0.0174192
0.000106868
0.000218452
-0.00164904
-0.000760061
0.000454437
9.39381e-06
0.000626692
-3.40092e-06
8.53843e-05
7.52478e-07
1.78237e-05
0.000228211
0.000347855
0.000100684
-1.13053e-06
0.000666175
1.53846e-06
6.51353e-05
9.63398e-07
-0.000199817
-0.000156606
-0.000357021
6.16941e-07
-0.000220276
-4.45689e-05
-2.05595e-05
-0.000212321
1.19721e-06
-0.00119806
2.20042e-07
0.000305231
0.00419701
2.84749e-07
0.00266445
1.43999e-07
9.48472e-05
3.60584e-05
0.00545394
-1.01625e-07
1.38113e-06
-0.000490825
-2.79062e-05
0.00423077
-1.17371e-06
1.06582e-06
9.67715e-05
0.00139124
0.000257081
-0.000743505
0.000127735
-6.17043e-08
8.39675e-05
-3.07376e-06
-0.000916705
-2.67781e-06
0.000348653
-0.000214028
-2.18298e-07
0.000145103
0.00119753
-2.03673e-07
-0.000432526
0.000491752
0.000186155
5.42056e-06
-9.71317e-05
0.000134461
1.36092e-05
0.000941662
1.66159e-07
-4.22026e-07
0.00069614
6.82865e-05
-2.37905e-06
0.00118224
-0.000806588
0.00266168
1.32272e-06
0.000236835
0
-2.12644e-05
0.00098798
-0.000403435
0
-6.34155e-05
3.75853e-06
0.000113983
-6.93611e-05
2.42229e-06
6.33788e-05
0.0251168
1.68779e-07
0.0246511
1.88776e-06
-9.39118e-05
0.0154344
-2.66477e-08
5.12028e-05
8.41308e-06
0.000670757
-2.04921e-06
6.49553e-05
-0.00301164
-1.57546e-06
0.0283111
5.60954e-05
2.94064e-06
0.00018436
4.0235e-07
-0.000360263
0.000115537
-5.50125e-05
-7.10814e-05
0.000723447
1.27246e-07
0.000363616
0.00245935
1.37997e-07
-1.46517e-07
-1.36611e-05
6.26821e-08
-0.000355314
-1.29968e-06
3.07363e-05
-5.31446e-07
-7.92979e-08
-3.34757e-05
-1.54165e-05
0.0238871
0.00010702
-1.65584e-07
0.000546521
-6.03548e-05
0.00011478
-0.000289331
-9.1684e-06
-3.63446e-05
-0.000350463
1.14171e-05
0.00012244
0.119588
-1.93291e-06
-0.000107691
2.12694e-05
4.21166e-05
2.39916e-06
-0.000645283
3.06436e-05
-0.000207741
3.7043e-06
3.03698e-06
-4.94087e-08
0.000119489
0.00382103
-7.34909e-05
2.84562e-08
1.80652e-05
-1.4789e-05
1.67539e-06
0.000128506
-1.70582e-06
-0.000192706
-4.57783e-06
-9.78376e-05
-0.00194554
0.0214875
-4.02672e-05
-7.07702e-06
0.000650553
-9.55393e-07
0.000443551
-2.67061e-06
-9.59184e-09
-0.000212141
0
0.0298896
-0.00107794
0.00187842
-1.8258e-08
-4.51381e-05
-0.000296792
0.00340973
2.15077e-06
0.000809295
-4.87746e-08
0.000188566
8.33353e-08
-1.69511e-05
0.00338697
6.45215e-07
-7.31885e-07
-0.000676743
-2.53738e-05
0.00137295
2.38366e-07
-7.11282e-05
5.30802e-05
-0.000325996
-4.1104e-06
1.31899e-07
-0.000521055
-0.000850002
-0.00028244
0.000271532
0.000172853
-3.97774e-08
0.0439403
0.00135741
-0.000772963
9.96934e-06
0.000120107
8.18689e-06
-2.29894e-06
0.000248494
-4.54285e-07
0.000776913
1.86239e-05
-4.97846e-05
6.33766e-08
-4.50976e-07
-0.000262489
8.30256e-07
-7.54314e-05
1.00636e-05
-2.5185e-05
1.71306e-05
0.000174754
2.38026e-05
-0.000174443
-4.39932e-05
-1.45196e-06
-0.000363894
-3.47561e-05
0.0206378
0.0025996
0.000258404
-0.00035701
1.51751e-06
0.000170394
-3.64313e-06
0.0126567
2.6447e-06
3.52576e-07
0.000437449
-3.54066e-05
-0.000505821
-6.92905e-07
0.00337443
-1.26609e-06
0.00121492
0.028986
3.6494e-05
0.000668532
-1.98866e-09
-1.62254e-05
-5.615e-06
0.0121485
0
-9.6056e-05
-8.09346e-07
-0.0010327
1.1588e-05
0.0518432
0.000140281
3.59725e-05
-3.54459e-06
2.35351e-05
1.7838e-06
7.78943e-06
0.00680878
0.0178362
-2.67429e-06
-3.84656e-05
-4.61889e-06
0.000483348
7.56144e-07
9.60292e-05
0.000214175
0
0.00167346
-0.00108955
1.5902e-06
-5.02622e-05
0.0018768
8.79699e-07
4.20527e-05
1.23134e-06
-0.000224803
0.00816804
-1.97715e-06
0.000776003
0.00029984
-2.32112e-05
-6.37168e-07
0.00016383
2.60475e-05
0.0004916
-2.525e-06
-3.6525e-07
0.000134094
4.50966e-05
1.18814e-06
1.09343e-05
0.000132277
5.70006e-07
-1.20446e-05
-3.11698e-08
-0.000280688
-0.000481603
0.00258288
2.79765e-07
-2.70286e-05
0.0198014
-2.81267e-05
9.68257e-06
-0.000720563
-1.82467e-07
-0.00404414
-0.000977359
0.00131916
1.96467e-07
0.0166971
0.10623
7.92792e-05
-9.05944e-07
2.95427e-06
-1.4243e-08
-7.4553e-07
0.00323825
0.000343153
0.00647365
6.32223e-06
-1.65416e-06
0.000460652
-3.28679e-07
1.90632e-06
-1.2723e-05
0.0106032
-0.000257765
-4.59133e-07
0.00911102
0.000484662
0.000390984
0.0135964
3.63225e-06
-0.000234819