# vtk DataFile Version 2.0
Unstructured Grid by M++
ASCII
DATASET UNSTRUCTURED_GRID
POINTS 4072 float
  0.546875   0.656250 0
  0.546875   0.578125 0
  0.718750   0.625000 0
  0.656250   0.875000 0
  0.734375   0.609375 0
  0.671875   0.859375 0
  0.718750   0.609375 0
  0.656250   0.859375 0
  0.734375   0.593750 0
  0.671875   0.843750 0
  0.578125   0.984375 0
  0.640625   0.734375 0
  0.546875   0.593750 0
  0.593750   0.984375 0
  0.656250   0.734375 0
  0.640625   0.984375 0
  0.703125   0.734375 0
  0.546875   0.781250 0
  0.609375   0.531250 0
  0.546875   0.796875 0
  0.968750   0.531250 0
  0.609375   0.546875 0
  0.890625   0.984375 0
  0.953125   0.734375 0
  0.578125   0.593750 0
  0.515625   0.843750 0
  0.953125   0.625000 0
  0.890625   0.875000 0
  0.781250   0.578125 0
  0.718750   0.828125 0
  0.734375   0.812500 0
  0.640625   0.968750 0
  0.703125   0.718750 0
  0.671875   0.937500 0
  0.734375   0.687500 0
  0.671875   0.953125 0
  0.734375   0.703125 0
  0.656250   0.953125 0
  0.718750   0.703125 0
  0.656250   0.968750 0
  0.718750   0.718750 0
  0.578125   0.765625 0
  0.562500   0.765625 0
  0.578125   0.750000 0
  0.921875   0.953125 0
  0.984375   0.703125 0
  0.921875   0.937500 0
  0.984375   0.687500 0
  0.562500   0.953125 0
  0.578125   0.578125 0
  0.515625   0.828125 0
  0.562500   0.578125 0
  0.656250   0.937500 0
  0.718750   0.687500 0
  0.640625   0.937500 0
  0.703125   0.687500 0
  0.640625   0.953125 0
  0.703125   0.703125 0
  0.546875   0.765625 0
  0.609375   0.515625 0
  0.531250   0.765625 0
  0.593750   0.515625 0
  0.890625   0.937500 0
  0.953125   0.687500 0
  0.859375   0.750000 0
  0.796875   1.000000 0
  0.984375   0.734375 0
  0.921875   0.984375 0
  0.968750   0.734375 0
  0.906250   0.984375 0
  0.984375   0.718750 0
  0.921875   0.968750 0
  0.593750   0.546875 0
  0.531250   0.796875 0
  0.593750   0.531250 0
  0.531250   0.781250 0
  0.953125   0.515625 0
  0.578125   0.562500 0
  0.515625   0.812500 0
  0.578125   0.546875 0
  0.515625   0.796875 0
  0.593750   0.609375 0
  0.531250   0.859375 0
  0.578125   0.609375 0
  0.515625   0.859375 0
  0.859375   0.703125 0
  0.796875   0.953125 0
  0.828125   0.750000 0
  0.765625   1.000000 0
  0.828125   0.734375 0
  0.765625   0.984375 0
  0.921875   0.796875 0
  0.984375   0.546875 0
  0.562500   0.812500 0
  0.906250   0.796875 0
  0.921875   0.781250 0
  0.812500   0.765625 0
  0.750000   1.000000 0
  0.812500   0.750000 0
  0.859375   0.531250 0
  0.796875   0.781250 0
  0.796875   0.765625 0
  0.781250   0.781250 0
  0.875000   0.578125 0
  0.812500   0.828125 0
  0.937500   0.734375 0
  0.875000   0.984375 0
  0.765625   0.578125 0
  0.703125   0.828125 0
  0.781250   0.562500 0
  0.718750   0.812500 0
  0.750000   0.578125 0
  0.687500   0.828125 0
  0.765625   0.562500 0
  0.703125   0.812500 0
  0.625000   0.953125 0
  0.687500   0.703125 0
  0.609375   0.968750 0
  0.671875   0.718750 0
  0.609375   0.953125 0
  0.671875   0.703125 0
  0.625000   0.875000 0
  0.687500   0.625000 0
  0.609375   0.890625 0
  0.671875   0.640625 0
  0.625000   0.890625 0
  0.687500   0.640625 0
  0.609375   0.906250 0
  0.671875   0.656250 0
  0.937500   0.578125 0
  0.875000   0.828125 0
  0.921875   0.593750 0
  0.859375   0.843750 0
  0.921875   0.578125 0
  0.859375   0.828125 0
  0.937500   0.640625 0
  0.875000   0.890625 0
  0.562500   0.703125 0
  0.546875   0.718750 0
  0.546875   0.703125 0
  0.531250   0.718750 0
  0.906250   0.968750 0
  0.968750   0.718750 0
  0.906250   0.953125 0
  0.968750   0.703125 0
  0.906250   0.937500 0
  0.968750   0.687500 0
  0.890625   0.968750 0
  0.953125   0.718750 0
  0.890625   0.953125 0
  0.953125   0.703125 0
  0.593750   0.765625 0
  0.609375   0.750000 0
  0.593750   0.750000 0
  0.937500   0.953125 0
  0.843750   0.921875 0
  0.906250   0.671875 0
  0.828125   0.937500 0
  0.890625   0.687500 0
  0.546875   0.750000 0
  0.546875   0.734375 0
  0.531250   0.750000 0
  0.953125   0.671875 0
  0.890625   0.921875 0
  0.531250   0.671875 0
  0.515625   0.687500 0
  0.875000   0.921875 0
  0.937500   0.671875 0
  0.515625   0.937500 0
  0.859375   0.937500 0
  0.921875   0.687500 0
  0.859375   0.921875 0
  0.921875   0.671875 0
  0.843750   0.937500 0
  0.906250   0.687500 0
  0.921875   0.703125 0
  0.859375   0.953125 0
  0.937500   0.703125 0
  0.875000   0.953125 0
  0.937500   0.687500 0
  0.875000   0.937500 0
  0.828125   0.656250 0
  0.968750   0.593750 0
  0.968750   0.578125 0
  0.906250   0.812500 0
  0.953125   0.593750 0
  0.953125   0.578125 0
  0.875000   0.843750 0
  0.937500   0.593750 0
  0.953125   0.656250 0
  0.531250   0.921875 0
  0.890625   0.906250 0
  0.953125   0.640625 0
  0.890625   0.890625 0
  0.937500   0.656250 0
  0.875000   0.906250 0
  0.718750   0.593750 0
  0.656250   0.843750 0
  0.734375   0.578125 0
  0.671875   0.828125 0
  0.718750   0.578125 0
  0.656250   0.828125 0
  0.734375   0.562500 0
  0.671875   0.812500 0
  0.578125   0.890625 0
  0.640625   0.640625 0
  0.593750   0.890625 0
  0.656250   0.640625 0
  0.578125   0.906250 0
  0.640625   0.656250 0
  0.578125   0.953125 0
  0.640625   0.703125 0
  0.593750   0.953125 0
  0.656250   0.703125 0
  0.578125   0.968750 0
  1.000000   0.703125 0
  0.640625   0.718750 0
  0.593750   0.968750 0
  0.656250   0.718750 0
  0.734375   0.515625 0
  0.671875   0.765625 0
  0.968750   0.765625 0
  0.984375   0.750000 0
  0.843750   0.750000 0
  0.781250   1.000000 0
  0.859375   0.734375 0
  0.796875   0.984375 0
  0.843750   0.734375 0
  0.781250   0.984375 0
  0.859375   0.718750 0
  0.796875   0.968750 0
  0.843750   0.718750 0
  0.781250   0.968750 0
  0.828125   0.640625 0
  0.765625   0.875000 0
  0.828125   0.625000 0
  0.875000   0.546875 0
  0.812500   0.796875 0
  0.812500   0.781250 0
  0.796875   0.796875 0
  0.875000   0.609375 0
  0.812500   0.859375 0
  0.968750   0.796875 0
  0.546875   0.687500 0
  0.546875   0.671875 0
  0.531250   0.687500 0
  0.984375   0.796875 0
  1.000000   0.796875 0
  0.562500   0.796875 0
  0.578125   0.781250 0
  0.625000   0.531250 0
  0.562500   0.781250 0
  0.578125   0.640625 0
  0.515625   0.890625 0
  0.562500   0.640625 0
  0.578125   0.625000 0
  0.515625   0.875000 0
  0.875000   0.703125 0
  0.812500   0.953125 0
  0.750000   0.609375 0
  0.687500   0.859375 0
  0.765625   0.593750 0
  0.703125   0.843750 0
  0.750000   0.593750 0
  0.687500   0.843750 0
  0.625000   0.984375 0
  0.687500   0.734375 0
  0.625000   0.968750 0
  0.687500   0.718750 0
  0.609375   1.000000 0
  0.671875   0.750000 0
  0.609375   0.984375 0
  0.671875   0.734375 0
  0.625000   0.906250 0
  0.687500   0.656250 0
  0.609375   0.921875 0
  0.671875   0.671875 0
  0.625000   0.921875 0
  0.687500   0.671875 0
  0.609375   0.937500 0
  0.671875   0.687500 0
  0.625000   0.937500 0
  0.687500   0.687500 0
  0.968750   0.656250 0
  0.906250   0.906250 0
  0.984375   0.640625 0
  0.921875   0.890625 0
  0.968750   0.640625 0
  0.906250   0.890625 0
  0.984375   0.625000 0
  0.921875   0.875000 0
  0.968750   0.625000 0
  0.906250   0.875000 0
  0.953125   0.765625 0
  0.906250   1.000000 0
  0.968750   0.750000 0
  0.937500   0.765625 0
  0.953125   0.750000 0
  0.953125   0.796875 0
  0.937500   0.796875 0
  0.953125   0.781250 0
  1.000000   0.531250 0
  0.937500   0.781250 0
  0.984375   1.000000 0
  1.000000   1.000000 0
  1.000000   0.984375 0
  0.890625   0.765625 0
  0.718750   0.515625 0
  0.656250   0.765625 0
  0.890625   0.796875 0
  0.890625   0.781250 0
  0.562500   0.671875 0
  0.921875   0.656250 0
  0.578125   0.656250 0
  0.515625   0.906250 0
  0.562500   0.656250 0
  0.890625   0.750000 0
  0.828125   1.000000 0
  0.875000   0.734375 0
  0.812500   0.984375 0
  0.546875   0.968750 0
  0.625000   0.718750 0
  0.171875   0.656250 0
  0.750000   0.046875 0
  0.062500   0.609375 0
  0.046875   0.609375 0
  0.734375   0.031250 0
  0.046875   0.593750 0
  0.718750   0.125000 0
  0.703125   0.109375 0
  0.687500   0.125000 0
  0.500000   0.937500 0
  0.437500   0.765625 0
  0.359375   0.625000 0
  0.296875   0.875000 0
  0.343750   0.609375 0
  0.281250   0.859375 0
  0.250000   0.515625 0
  0.484375   0.531250 0
  0.468750   0.515625 0
  0.468750   0.656250 0
  0.453125   0.671875 0
  0.031250   0.937500 0
  0.390625   0.921875 0
  0.250000   0.968750 0
  0.765625   0.234375 0
  0.750000   0.093750 0
  0.750000   0.078125 0
  0.000000   0.515625 0
  0.500000   0.765625 0
  0.328125   0.718750 0
  0.343750   0.703125 0
  0.328125   0.687500 0
  0.312500   0.703125 0
  0.343750   0.781250 0
  0.406250   0.531250 0
  0.015625   0.531250 0
  0.062500   0.593750 0
  0.750000   0.015625 0
  0.062500   0.578125 0
  0.046875   0.578125 0
  0.734375   0.000000 0
  0.296875   0.687500 0
  0.484375   0.843750 0
  0.031250   0.593750 0
  0.718750   0.015625 0
  0.031250   0.578125 0
  0.468750   0.828125 0
  0.703125   0.000000 0
  0.750000   0.234375 0
  0.453125   0.750000 0
  0.218750   0.687500 0
  0.421875   1.000000 0
  0.000000   0.218750 0
  0.484375   0.750000 0
  0.468750   0.765625 0
  0.468750   0.875000 0
  0.046875   0.093750 0
  0.296875   0.781250 0
  0.437500   0.984375 0
  0.015625   0.203125 0
  0.500000   0.796875 0
  0.078125   0.015625 0
  0.484375   0.875000 0
  0.484375   1.000000 0
  0.062500   0.218750 0
  0.468750   0.859375 0
  0.484375   0.781250 0
  0.062500   0.000000 0
  0.484375   0.921875 0
  0.062500   0.140625 0
  0.453125   1.000000 0
  0.031250   0.218750 0
  0.312500   0.562500 0
  0.250000   0.812500 0
  0.468750   0.937500 0
  0.046875   0.156250 0
  0.343750   0.593750 0
  0.375000   0.562500 0
  0.312500   0.812500 0
  0.203125   0.671875 0
  1.000000   0.234375 0
  0.375000   0.593750 0
  0.312500   0.796875 0
  0.484375   0.890625 0
  0.062500   0.109375 0
  0.296875   0.796875 0
  0.187500   0.656250 0
  0.984375   0.218750 0
  0.359375   0.546875 0
  0.375000   0.625000 0
  0.359375   0.609375 0
[...]
POINT_DATA 4072
SCALARS scalar_value float 1
LOOKUP_TABLE default
-0.00914545
-0.00717839
0.00119223
7.25231e-05
0.0031747
-6.37471e-06
-0.00263994
-2.70141e-06
-0.00301788
0.000103219
-2.17603e-05
-0.000113646
-0.011443
1.43927e-05
0.000585614
-1.0955e-05
-0.000146002
0.000187252
-0.0145557
-2.98543e-06
-2.41794e-05
-0.0102495
-3.31059e-06
9.26296e-05
0.00229524
-8.93795e-05
-4.17825e-06
1.33901e-05
-0.000445135
-1.79325e-05
-1.56205e-05
-1.58008e-05
-2.42265e-05
-7.12867e-06
0.000264532
9.25908e-06
6.6922e-05
-2.70506e-06
-0.000132312
1.83512e-05
2.98813e-05
-4.96672e-05
0.000312689
-0.00048299
3.18441e-07
3.99525e-05
1.15424e-06
-4.27929e-05
2.04995e-05
0.0134412
0.000171377
0.00960009
2.46906e-05
-0.000170801
-3.07032e-05
-5.48933e-05
6.25333e-06
0.000212549
-0.00028458
-0.00973729
0.000301081
0.0421694
-4.81789e-06
-9.2963e-05
7.92918e-05
0
2.47746e-05
-6.46998e-07
-0.000130237
1.88095e-07
-4.09698e-05
-2.57429e-06
0.031367
-6.75274e-05
0.0318562
-0.000224434
-2.1714e-05
0.0161567
-0.000106653
0.0251594
0.000201119
0.020817
-8.33528e-05
-0.00146434
0.000196378
0.000262609
5.38561e-06
4.11573e-05
0
-0.000139411
5.244e-06
-0.00011732
-1.63665e-05
-4.39206e-06
0.000105984
-1.13744e-05
2.50917e-05
0
-1.76784e-06
-6.46931e-05
1.69619e-05
5.95242e-06
-0.000191471
-0.00014112
3.07779e-05
-9.54109e-05
-3.12899e-06
0.00098438
-4.03704e-05
0.00026573
5.46091e-05
-0.000889976
8.49602e-05
-0.000584462
-5.06068e-05
-1.74492e-06
-9.08099e-05
1.06714e-06
0.000363654
-9.29729e-06
0.000238079
3.75372e-05
0.000156743
1.88288e-05
7.82821e-05
7.66816e-06
0.000687457
-5.92286e-05
0.000303066
-6.90332e-05
-1.47736e-05
-7.78756e-05
1.67809e-05
5.80143e-05
-8.60208e-06
-3.33951e-05
-3.2172e-07
-0.00071922
-0.000457582
0.000435302
0.000684069
2.91003e-06
0.00010272
-4.03327e-06
-0.000121754
5.01983e-06
7.26217e-05
6.75418e-07
-0.000106663
-8.70476e-07
0.000117713
0.000215761
-0.000712856
0.000350591
-3.38594e-06
1.8573e-06
-0.000165533
1.5072e-07
-0.000275374
0.000457837
-3.94657e-05
-0.00057626
9.29786e-05
2.91829e-06
0.000615702
-0.00181556
-4.13998e-06
-8.76215e-05
6.58969e-05
4.97115e-07
-0.000255756
3.87744e-06
8.98088e-05
6.82744e-07
0.000265316
0.000115792
2.20891e-06
-0.000126872
-1.21356e-06
0.000173799
-2.32714e-06
-0.000690028
-1.16574e-05
-2.62232e-05
0.000215533
1.97119e-05
6.97852e-05
1.95697e-06
-8.09847e-06
-4.87439e-05
-1.58687e-05
-9.9462e-07
6.35004e-05
-4.24891e-06
0.000115797
-2.03819e-06
0.00335247
-2.68817e-05
0.00273024
-0.00010741
-0.00267799
0.000176142
-0.000806229
9.96744e-05
6.07617e-05
0.00098033
-5.63674e-05
0.00171777
-5.55608e-05
-0.00192965
-1.82723e-05
-0.00111728
1.59058e-05
0.000460051
-7.2028e-06
-0.000120524
0.000963262
-2.10199e-06
-0.000893167
0.0036035
8.97564e-05
-9.23226e-05
-1.59135e-05
-7.7831e-05
0
-2.02678e-05
6.24807e-06
8.48069e-05
-4.66818e-06
-7.52746e-05
1.21449e-06
1.07225e-05
-1.90573e-07
0.000491711
-0.000105622
-0.000521524
-0.000168911
3.3053e-05
2.20959e-05
-3.49981e-05
-0.000132133
7.61782e-06
-3.68342e-05
0.000499142
-0.00400607
0.00216489
-2.05699e-05
-3.09697e-05
0.000263308
8.97606e-05
0.0316472
-0.00029418
-0.013094
0.000116015
0.00665688
-0.00598551
-0.000121859
-0.000263393
-1.0942e-06
-0.00233514
4.082e-05
-0.00106403
7.2146e-05
0.00147577
-8.96094e-05
1.9062e-05
0.000402261
1.01354e-05
-5.47153e-05
0
0.000308408
-1.98611e-05
-0.000447423
3.63979e-05
-0.000584738
3.02266e-05
0.000455611
-1.75649e-05
0.000349418
-3.08878e-05
-0.000580967
4.07693e-05
0.000208579
3.15795e-05
-7.17452e-06
6.08946e-06
-7.78934e-06
-5.15324e-05
1.50915e-05
8.02951e-07
-2.78341e-05
-8.3258e-06
1.31123e-06
1.58383e-05
0
9.34986e-05
-2.43635e-05
-4.83673e-05
-2.47107e-05
-2.49752e-05
3.35041e-05
-3.28232e-05
1.7147e-05
0
0
-2.38684e-06
-4.34407e-05
0.00104387
-0.000208784
-5.60509e-05
8.95841e-05
0.00179593
-0.000200127
-0.00925495
1.02697e-05
0.0166219
3.11253e-05
0
-3.3736e-05
-2.30561e-06
2.17994e-05
-0.000472278
-0.000332555
-0.0067907
-5.851e-07
1.19675e-06
0.0308774
2.64909e-05
0.179311
0.193982
0.0506963
3.59335e-06
-0.00102391
-0.00257251
1.02681e-05
0.00269388
4.05827e-05
0.000454445
0.00388429
0.000137282
-0.000316231
0.00218286
-4.47004e-07
6.38401e-06
3.10235e-06
-0.000956974
-0.00764584
-0.00661231
7.636e-07
-0.000189931
0.000208498
-5.40528e-05
9.69319e-05
-0.000410333
0.000263068
0.0714526
5.35107e-06
-2.49512e-05
-0.00852034
2.64084e-05
-1.83013e-05
0.0179253
0.000320346
0.00028401
-2.95034e-05
0.112364
1.66662e-05
-0.00015009
0.146786
0.00304248
-0.000617418
0.000186223
0
5.79547e-06
-0.000302251
-0.000204281
-6.39103e-05
-9.53068e-05
-9.4475e-05
1.00684e-05
5.18583e-06
-0.000139006
-5.96832e-06
5.30198e-05
0
-0.00136285
0.000120466
2.55609e-05
-3.54436e-05
2.79267e-05
0.000669079
0
9.0801e-05
-0.00189783
0.000120385
-1.55468e-05
-0.000112318
0.000710879
-0.00305576
0.000141566
0.000920244
-2.98939e-05
0.00179516
-0.00010947
5.90988e-05
6.79619e-05
3.26509e-05
0.000293196
3.03209e-05
0.00116768
0.00152277
-0.00172903
-0.0047002
3.68459e-05
-6.66195e-06
-0.00023375
-0.000143827
-1.0357e-05
-0.000179637
0.000113701
-0.00231336
-1.80107e-05
0.0198901
8.58163e-05
4.64154e-05
-1.73665e-05
3.38786e-05
-0.00273047
-4.62796e-05
-1.64052e-05
3.7086e-05
0.000298851
5.94195e-05
0.0121381
0.000174316
0.000328464
2.684e-06
0.0120591
-0.000106945
2.13208e-05
6.42277e-06
3.29475e-05
0.149478
1.86122e-05
2.69437e-06
0.000129013
0.178106
-0.00112403
0.00852549
2.69187e-05
-1.10581e-05
4.97675e-05
-0.00141226
0.0483182
1.00651e-05
0.0908894
7.65538e-05
7.18062e-05
-1.44568e-05
-4.61339e-05
3.63162e-06
2.5421e-05
0.0340802
0.187565
-0.000112985
0.0540041
0.169642
0.0489147
4.04961e-05
7.72438e-06
3.39022e-05
-0.000444437
0.000338491
-0.000200989
4.42689e-05
-5.59442e-07
4.96643e-05
0.000255534
0.000271474
7.73029e-06
2.07407e-05
0.000342385
-1.36097e-05
0.000148502
-1.09816e-05
-0.000147452
-4.55051e-06
-0.000236533
-0.000355895
9.27942e-08
0.00121607
-6.22018e-05
0
9.19573e-06
-0.00214267
-1.10555e-07
0
8.05391e-06
1.07665e-05
0.00223386
7.45884e-07
1.03213e-06
0.00162273
0
0
-8.3185e-06
-0.000154276
1.71225e-05
6.29212e-05
0.181972
6.58911e-06
-2.3286e-05
0.00204314
0.0339687
2.39364e-05
2.31553e-07
-0.000416982
-0.000957337
0.000278096
1.01376e-07
-0.00193668
2.01108e-05
0.224844
0.001219
1.09137e-05
-0.0022059
0.137926
-2.42301e-05
-0.000357203
-0.000400563
-8.4454e-06
-0.009439
-2.80999e-05
2.47436e-06
0.00339694
-0.00171741
6.41936e-05
-2.12241e-06
6.00805e-07
-2.57332e-06
6.31926e-06
0.110223
9.36534e-05
0
-0.00301588
0.00205504
-0.000106062
0.0192597
0.0158876
2.34171e-05
0.0242067
-0.000300487
0.000675807
0.0448391
-0.00397029
0.00830173
-0.00618091
-0.00564189
9.19691e-06
0.000312303
0.0223366
0.0101749
-2.92392e-05
9.19996e-05
-0.00338845
0.00226927
-0.000435628
0.000259162
0.0359902
-5.39962e-06
-0.000807486
0.170458
-5.16598e-05
0.000147126
-1.84818e-05
0.00540226
-2.10614e-05
0.00294095
0.00531005
0.000611203
-1.03267e-05
0.0402178
9.40707e-05
-4.9668e-05
-0.00646764
-0.00373656
0.0068753
-0.00594
3.77657e-05
8.86974e-06
-4.73235e-05
-0.000151813
2.30249e-05
0.194042
7.50439e-06
0.150353
0.110373
-1.1617e-05
-0.00464423
-0.000143898
-7.17395e-05
-0.000149054
-0.000299466
-0.000252541
0.00010804
0.122125
0.0709906
-1.13379e-05
0.000135786
0.0485319
9.43051e-05
0.000541076
-0.0052941
0.0838048
3.99388e-05
-0.000214258
-1.35414e-05
0.000579761
0.00165646
-4.62843e-06
0.00312119
2.6567e-05
0.000367163
-0.00221582
0.00242713
-0.00118913
-0.000157527
0.288722
0.0144667
0.000139535
0.000112794
-1.15455e-05
0.00126262
-0.00412218
0.000467339
-4.17454e-05
0.0279724
0.00503996
1.70289e-05
-0.000151022
-1.59937e-05
-4.2251e-06
6.1555e-05
-8.63085e-06
-0.00108226
-2.28043e-05
0.000344399
0.00635889
0.0547614
6.82743e-05
5.87129e-06
-5.51716e-06
0.0149806
-1.14281e-05
0.000129268
1.21496e-05
-5.0168e-06
0.0125437
-1.09467e-05
-0.00831008
6.11885e-05
8.48232e-06
-0.00435668
0.00133479
4.73118e-05
-0.00047428
-8.95746e-06
1.2444e-06
6.98813e-07
0.206136
-7.7337e-06
0.00234187
0
0.188701
0.00132363
-0.0102885
-0.00252525
0.174632
-3.28724e-05
5.78471e-05
-3.37136e-05
0.0006804
-1.80631e-05
-0.000274609
0.00909941
-2.31273e-06
-0.00036072
-1.95863e-06
0.000454766
-5.5272e-05
8.35302e-05
8.10342e-05
-0.00575512
0
0.0372015
-0.0163977
-7.77529e-05
0.00445076
1.59698e-05
-0.0153954
-0.0161145
9.20519e-05
0.00274793
0.00120567
0.000579936
-1.97333e-05
0.0114664
1.83555e-06
0.000474615
-0.00771213
-6.1412e-06
-0.00128127
9.67619e-06
-3.91761e-06
-0.000559555
-0.00941991
2.04943e-07
0.0400819
0.0399603
-0.00116536
-6.98936e-05
0.000128618
0.000589801
0.110415
0.000144528
2.23423e-06
0.0441164
0.182186
-8.29833e-05
0.0421045
1.84633e-05
2.65935e-05
-9.21559e-06
0.175244
3.61013e-05
6.13244e-05
0.000160453
-0.00120122
-0.000137718
0.0403513
0.167726
-0.000164416
0.0429358
-9.55451e-06
0.159366
0.288051
1.13762e-06
0.00163824
0.236197
0.084983
0
0.169559
0.0435706
-0.00287457
0.252766
4.0968e-06
6.22926e-05
-1.18007e-05
0.0524662
5.01289e-05
-4.03473e-05
8.01715e-06
2.14104e-05
-3.12437e-05
-5.72368e-05
0.00196332
2.93014e-06
2.5108e-05
-4.79705e-06
1.06728e-05
0.0360074
-0.000840352
-0.000901648
-0.000109931
-0.000150482
0.000465216
0.142182
0.000159964
2.2612e-05
0.0003623
0.000154229
-8.78581e-05
-6.714e-05
-2.68283e-05
-0.000186286
-1.1359e-05
0.000152967
-5.89345e-06
-2.01586e-07
0.000729449
0.0119059
0.0186905
-1.30771e-05
9.08414e-06
0.000425685
1.24019e-05
0.00277948
0.127683
0.194779
0.126858
0.00013088
7.53537e-06
0.184846
0.0153448
0.234712
0.0370918
-0.000663801
0.164604
2.76946e-06
-0.000957148
7.46852e-06
0.0119747
0.00148632
0.126038
-1.75679e-06
0.0148141
0.113367
-1.05488e-05
0.0409089
-0.00120864
0.0761934
3.90647e-08
0.0579941
8.83491e-06
0.0699969
-8.3965e-06
-1.79859e-05
-0.00165894
-0.000159573
-0.0154907
-3.25446e-05
0.011733
0.0179472
6.12858e-06
-0.00192995
9.14924e-07
2.88641e-08
-0.0161864
-1.28672e-06
0.000705796
0.00118459
-0.0109241
-5.65993e-06
-0.00442938
-0.00192802
4.90295e-05
2.47003e-05
0.128124
-1.53087e-05
0.0732737
0.18736
0.199213
0.0155282
0.028143
-3.39625e-05
5.52273e-05
0.0488884
0.165971
0.0547245
0.191065
7.75671e-07
1.23668e-05
0.0230474
0.00252938
0.0918376
-5.00189e-07
0.0319525
0.0809062
-2.04564e-06
-1.64828e-05
0.0649595
-0.00468741
0.0619154
5.98324e-06
0.0879155
7.99195e-06
-6.98049e-06
-3.86732e-05
0.0509999
0.00155836
7.64623e-05
8.6951e-05
0.00163298
-8.61681e-06
-7.37213e-05
-7.12162e-05
-1.11512e-05
4.38604e-05
-0.000331305
-0.000869304
-2.24527e-05
-4.99947e-06
8.34447e-05
-5.44509e-05
0.00989073
-0.0166107
-1.96395e-05
-0.000398469
-1.94327e-05
-0.00126503
0.00423111
-0.0170629
-0.00441717
-0.00227698
7.38294e-06
0.00647017
2.97739e-06
-9.96271e-08
-9.78119e-06
0.000380438
-0.0145476
0.160429
0.211536
0.000103056
-2.96357e-05
6.00183e-05
0.00312207
0.174788
5.525e-05
0.00333292
0.125392
-4.13829e-05
-0.016936
-0.00568547
-0.0171181
1.45851e-05
0.00252995
0.000490564
-4.07611e-06
0.000377597
0.000487309
-0.000181556
0
3.36736e-06
0.0109825
0.000203036
0.185151
0
1.48233e-06
-0.00736292
1.68833e-05
0.217262
0.0120553
0.183934
-7.43394e-05
8.85441e-05
0.00230442
0.000187546
-8.33113e-07
0.000164666
2.86307e-05
1.05554e-06
0.00016005
-8.94431e-05
-0.000173522
-8.93433e-05
0.000373355
-8.11293e-06
0.187589
0.127677
0.000100359
-5.1501e-05
0.225785
0.0089636
-9.84246e-05
0.192571
0.128204
3.98168e-05
-1.52457e-05
0.120463
0.00363411
0.0138963
-0.027501
0.0158206
0.162763
-1.42791e-05
0.154753
-0.00261972
0.000345752
-0.000256242
-0.000715117
0
0.0019879
0.0030843
0.000789658
-2.7387e-05
-0.0022098
0.0017374
0.000354449
-0.00227131
0.0022571
2.95118e-05
8.56916e-05
-1.77792e-05
5.28303e-06
0.109037
-1.00635e-05
0.224854
-7.47937e-05
9.41878e-06
0.113627
0.00461056
0.209723
-3.53662e-06
0.211191
0.182632
0.23974
0
-7.08137e-06
0.00301284
0.00297111
0.000455964
0.00264437
-2.84688e-06
-0.00477736
0.00123064
-0.006797
0.194579
0.200319
0
0.237933
0.212393
2.33011e-06
1.12907e-05
-4.55329e-05
-0.00037363
0.000163553
0.000696225
0.000433644
-0.000153369
-5.06923e-05
-0.00130575
-6.21978e-05
4.9515e-05
0.174111
0.00016584
0.000195911
-3.04943e-06
-0.000304453
7.74146e-06
0.160329
-0.000122879
-7.18657e-05
0.165531
0.0083616
0.155578
1.3578e-06
0.00919792
0.114064
-0.000108428
0.000115994
0.107111
-4.99825e-05
0.0109912
0.190668
0.211864
-1.2757e-05
0.121365
0.188511
0.17424
0.196541
-3.5814e-07
4.95873e-05
-0.00324491
0.000208886
-0.000253898
-0.000193935
0.0130363
0.142292
0.229998
0.0389352
-0.00283165
-0.000628504
-0.00110848
0.221635
0.0315972
-0.000819906
0.000826268
0.000112075
7.3888e-06
0.00204525
0.22367
0.0340058
0.234575
0.0409178
-0.00190515
0.000815589
0
-0.000982759
0.00102173
0.208119
-6.0491e-05
2.27179e-06
0.000775673
-0.0010239
0.0177198
0.169465
0.0049149
7.60601e-05
0.000657925
-1.3259e-05
0.00546427
0.000967645
-1.93908e-05
0.00225147
0.235525
-8.00415e-06
-1.581e-05
0.0375025
-0.00129598
0.000455495
0.00575277
0.220791
0.136514
1.18143e-05
0.149903
0.163428
-0.000151326
7.21329e-05
0.00166176
0.000307487
9.19857e-05
2.10505e-05
-0.00230633
0.217763
-1.52401e-05
-0.0234759
0.208723
-1.08105e-06
-0.0127129
0.000813784
-0.00125729
-0.00021669
-0.00035899
0.177223
-8.61847e-07
0.0270213
-0.00104513
-1.44935e-05
-0.000128538
-0.00127836
-2.58369e-05
0.000160047
-0.00029813
0.182165
0.0142335
0.000240054
0.169713
1.28328e-05
0.0322415
0.0012269
0.0034259
-0.000786234
0.00372898
0.000101986
0.00124085
-0.000103802
0.000364747
-0.00130409
0.040272
0.153881
-6.00676e-06
0.000147899
7.34614e-05
-3.28583e-05
8.72673e-06
3.03017e-05
3.5851e-05
3.35738e-05
-9.70235e-05
0.000115748
5.40475e-05
-4.88877e-06
-9.40131e-06
0.0230387
-0.00152063
1.81883e-05
-5.0579e-06
-4.19867e-05
-1.87273e-05
0.198867
2.63479e-05
0.111523
0.00185384
0
0.209849
0.220841
0
-1.55855e-05
0.215134
0.0262179
0.018123
0.0697444
-9.33929e-06
0.0832192
-4.03541e-05
-1.56948e-05
0.189418
-9.70855e-05
0.0450893
4.18183e-05
0.0253807
0.00549734
1.23402e-05
0.0875442
0.00689741
0.0735828
8.2627e-06
1.34998e-05
0.0486006
-0.00253799
0.133018
0.0207679
0.185219
0.230769
0.18868
0.212425
1.26539e-05
-0.0210831
0.220153
0
0.17334
0.0294666
0.183334
-1.38545e-06
8.68859e-05
0.000415091
0.000105566
0.165479
-0.00957728
0.179645
6.51299e-05
-0.00775581
-0.00515855
0.192926
1.21979e-05
-8.66599e-05
0.00668634
-0.000142255
0.181351
-1.79509e-06
-0.000140551
1.11313e-05
-4.69674e-07
0.138788
0.0619319
5.28685e-05
2.27721e-05
0.151076
2.3222e-06
0.0454502
-0.0001066
0.0139013
0.185335
0.0266799
0.00285402
0.100066
-2.88407e-05
0.104255
-1.62336e-05
8.04758e-06
0.187597
0.216069
-7.38768e-06
-0.0105201
0.158267
7.8365e-05
0.14874
-1.70164e-06
0.175742
0.155369
0.190311
-3.11766e-05
0.136936
0.170311
0.158508
2.76768e-05
0.157012
-1.0375e-05
5.74154e-06
0.172815
0.133686
0.18548
1.07821e-06
0.179237
-2.2674e-05
0.103889
-0.00105538
-0.00204071
1.02703e-05
0.00429288
-0.000938565
0.0131594
-9.05221e-06
1.16492e-06
-0.00140071
8.09116e-06
-0.00421777
0.000760883
-0.0135677
-1.342e-05
-0.0122614
1.27455e-06
0.00351465
-7.90948e-06
0.00338223
-0.000340377
0.0169765
-2.24703e-05
-7.40569e-06
-5.12455e-05
0
7.20218e-06
0.000818988
7.49523e-05
3.51649e-05
-0.000692182
0.160866
3.67353e-05
0.146201
-0.0028861
-0.000975921
0.243122
0.0135484
0.000245198
-6.60401e-05
-0.000407818
3.35528e-05
-0.000546962
7.29397e-06
8.45828e-07
0.208572
-0.00211009
-0.000223899
-6.92799e-06
-0.000479268
-2.29132e-05
-0.000394565
-0.000167153
1.48311e-05
0.000948808
0.000381899
2.94974e-05
0.179202
0.0001662
-2.02049e-05
0.000205236
0.000153056
-0.0386507
-1.18828e-05
-0.000124877
0.128624
7.34337e-05
0.0153621
1.49398e-05
-0.00381123
-0.00103095
0.0172708
-6.83258e-05
-3.79726e-05
0.00771108
0.000583926
0.189992
-5.60087e-05
7.12284e-05
0.016882
0.196252
0.0091085
-0.00784555
0.198174
2.50354e-06
-0.000437719
1.52162e-05
0.00286318
3.01778e-05
0.0518446
3.52397e-05
3.02832e-05
-0.000898366
0.107541
-1.32734e-06
0.000351036
-0.0023587
0.000146124
-7.49873e-05
-0.00883542
0.185572
0.0004697
0.191171
-1.46359e-06
2.35014e-05
0.0045114
0.146545
7.34073e-06
0.194153
-0.0311449
0.204547
-4.1472e-05
-0.0160664
0
0.000187038
0.2198
0.00118943
0
-0.000101131
-8.80598e-06
-0.000350764
0.00183698
-3.24716e-05
0.00531248
0.153387
-8.98256e-05
0.102207
-4.92574e-05
-0.000692132
0.178751
-6.36827e-07
-0.000305499
-0.000121592
-0.000558596
-2.8849e-05
-0.0197883
0.210325
-4.37314e-06
0.105919
-0.00132539
-0.00023376
1.64325e-05
-1.29454e-05
0.00171548
-0.000728578
-0.000123418
0.00614925
0.183518
4.97889e-06
0.0133427
0.198067
2.67316e-06
-2.71452e-05
-3.76488e-05
-0.000125216
0.000792897
-3.03967e-05
-0.000373976
3.4821e-05
-9.06549e-06
0.00772181
-0.000129288
0.166565
-0.000788254
4.16261e-05
-0.000375276
0.00185176
-1.81976e-05
0.00177991
-0.000198666
0.0211593
0.00166161
-5.007e-05
6.40359e-05
-0.00747352
-0.00305674
0.000194088
-0.000313044
-0.000114315
-9.25556e-05
0.162417
-5.20696e-05
0.000358441
-0.000136979
-2.53524e-06
-2.04722e-06
-0.000520211
0.0177176
-0.0084125
-6.36043e-08
-2.55804e-05
0.000105673
-0.000213726
0.000275705
0.000158246
0.000114377
0.00034465
-1.51155e-05
0.193804
0.119296
0.000148926
2.51847e-05
-0.00192662
-1.54115e-07
-0.00133251
2.17987e-05
6.69867e-07
0.000733579
0
0.130727
0.159586
0.0102273
7.04299e-06
-0.000483876
-0.019487
0.194728
4.58458e-05
-0.00284781
0.000163968
0.00176795
5.21592e-06
0.000514285
0.13029
-2.09426e-05
5.68812e-05
-0.00818866
0.000426577
0.115982
4.22529e-06
-0.00175947
0.0019241
0.000934033
5.93554e-05
1.23836e-05
0.00224518
0.234182
0.0436737
0.224359
0.0332922
2.58588e-06
0.113707
0.055554
0.000899559
-0.00132394
9.19351e-05
-1.14616e-05
0.000218468
0.170845
-0.00020861
0.00243749
0.0328844
-2.56432e-05
1.4051e-05
1.05242e-05
0.000395458
0.000227985
2.15013e-05
0.000405067
0.000109014
-9.70635e-06
0.000129852
-9.17651e-05
2.78377e-05
0.000169046
-2.85949e-06
0.00116948
0.161902
0.130603
0.181928
0.0229634
0.00037727
4.70116e-05
-0.000156831
-0.010826
0.0987761
-0.000102621
-0.000137824
-0.0024643
-0.000139014
0.00224823
9.08517e-06
0.195173
3.23427e-05
0.0289793
0.150404
-0.000528829
0.0486129
-4.78745e-06
0.000128015
0.000817694
0.197717
0
0.00224065
9.79571e-06
0.0693099
0.000134743
0.0970906
8.34826e-05
-0.00131039
0.00035486
-5.42333e-05
0.000327011
-8.30066e-07
0.199053
0.118147
4.13181e-05
0.000137257
5.23495e-05
0.00101894
-4.25859e-05
0.00962505
-0.000934761
0
0.136873
0.00278689
0.00015513
0.000968317
-0.00523211
4.21696e-06
-2.0913e-05
-1.75555e-05
0.00165822
0.157277
-2.91638e-05
0.0537126
4.29643e-05
0.000264094
3.44435e-05
0.0140737
0.00762232
0.204893
4.07288e-06
-3.4057e-05
-0.00133435
0.00156637
-5.98814e-05
-5.67039e-05
6.38481e-06
-0.000170473
-4.70007e-05
-3.85122e-07
-0.000531893
-0.0082914
0.129686
-5.86192e-07
0.000135743
0.0643363
-0.000159502
0.0465419
0.0319703
1.71988e-05
0.262427
-0.0164096
0.220406
-1.97019e-05
0.203973
0.000720694
0.0055054
7.67253e-05
-0.00103983
7.19739e-07
-3.11178e-05
0.0337809
-0.0107573
0.150356
-1.59291e-05
-0.000211569
-0.00155168
5.6011e-05
-0.000143272
2.21807e-05
0.143081
0.00167934
-0.000161755
0.135813
-0.0102699
-0.00175889
0.128976
-0.000161535
-0.000432199
-1.12498e-05
0.000169612
-0.000243295
4.59965e-05
0.000275484
-0.000180363
1.17468e-05
3.17898e-06
-0.000155119
0.000477224
0.000100673
7.05104e-05
0.0687872
-0.00257898
7.94656e-05
8.46554e-06
9.21728e-05
1.15459e-05
4.77557e-06
3.42999e-05
0.0343158
0.232353
0.158653
0.156991
0.26533
0.295921
0.0529932
0.254511
-2.369e-06
-0.0913478
0.290126
-0.000106681
-5.31092e-06
-0.0020142
0
0.230401
2.16212e-05
-0.000159339
0.162653
1.31709e-06
0.3246
0.158355
0
-0.000356108
-5.3468e-06
-5.13078e-05
0.0022392
-1.13129e-05
-0.000108356
-2.22446e-05
0.265939
0.000799642
0.214864
0.00147083
2.88656e-05
-5.81422e-06
0.00909499
0.198461
-8.85621e-06
0.0020156
-0.000110074
0.141616
0.195609
-3.54589e-05
-8.86777e-05
-0.00601767
-1.11887e-06
-2.92555e-05
-4.61114e-06
-7.4798e-06
5.95944e-05
-0.00149127
-0.0168058
0.0082154
7.12547e-05
-7.25461e-05
0.00127572
0
0.175244
-0.000118872
0.00105435
0.0935741
0.00482603
0.000879785
0.0020618
0.0372444
1.71816e-05
0.162537
0.00178742